inchikey,smi_pre,smi_post,lambda_sTDA (nm),f1_sTDA,lumo_dft,homo_dft,dmom_dft (D),lambda_z (nm),f1_z,lumo_z,homo_z,dmom_z (D),lumo_mopac,homo_mopac,dmom_mopac (D),lambda_tddft (nm),f1_tddft,lambda_exp_max (nm),epsilon_exp_max ,lambda_exp_min (nm),epsilon_exp_min ,solvent
ZWTNXGIZBOQCAJ-KQYNXXCUSA-N,OC[C@H]1O[C@H]([C@@H]([C@@H]1O)O)N1CNc2c1[nH]cnc2=O,OC[C@H]1O[C@H]([C@@H]([C@@H]1O)O)N1CNc2c1[nH]cnc2=O,276.6,0.087445691,1.7785,-7.1918,9.56595,333.559855812493,0.040649476,-0.2321,-7.977,14.51852,-0.325,-8.573,8.83556,NaN,NaN,561,NaN,561,NaN,NaN
LNKZLBUHXXDUAD-UHFFFAOYSA-N,N#CC(=Cc1ccc(s1)c1ccc(s1)c1ccc(s1)c1ccc(cc1)N(c1ccccc1)c1ccccc1)C(=O)O,N#CC(=Cc1ccc(s1)c1ccc(s1)c1ccc(s1)c1ccc(cc1)N(c1ccccc1)c1ccccc1)C(=O)O,413.6,2.377538343,-1.2372,-7.1636,6.38229,486.97642735861615,1.168298159,-1.7783,-7.2664,774.42229,-1.961,-8.093,5.85446,454.03813311326564,2.032207938,385,NaN,385,NaN,NaN
AHXWJKISUSNGSY-UHFFFAOYSA-N,CCCCCCc1cc(sc1c1ccc(s1)c1sc(cc1CCCCCC)C=C(C(=O)O)C#N)c1ccc(cc1)N(c1ccccc1)c1ccccc1,Cc1cc(sc1c1ccc(s1)c1sc(cc1C)C=C(C(=O)O)C#N)c1ccc(cc1)N(c1ccccc1)c1ccccc1,397.1,2.37346454,-1.135,-7.146,8.14986,425.76991210681206,0.930559035,-1.6933,-7.2626,707.64471,-1.858,-8.063,5.47952,462.43777930416417,2.0129307158,381,NaN,381,NaN,NaN
UDCIYVVYDCXLSX-UHFFFAOYSA-N,OCCC(=C(N(Cc1cnc(nc1N)C)C=O)C)SSCCC,OCCC(=C(N(Cc1cnc(nc1N)C)C=O)C)SSCCC,256.3,0.001074089,0.693,-8.4997,3.01554,290.2251835334823,0.073464843,0.0591,-8.3781,117.98572,-1.087,-8.654,2.43554,NaN,NaN,475,69183.09709189362,475,69183.09709189362,NaN
HDQIGGQUKAQTGU-GSOTZPCNSA-N,NC1NC(N)C2C(N1)CC[C@@H](C2)CN1CCC2C1CCCC2,NC1NC(N)C2C(N1)CC[C@@H](C2)CN1CCC2C1CCCC2,NaN,NaN,NaN,NaN,NaN,NaN,NaN,NaN,Nan,NaN,NaN,NaN,NaN,NaN,NaN,370,NaN,370,NaN,NaN
QCWXDVFBZVHKLV-UHFFFAOYSA-N,Cc1ccc(cc1)C(C)(C)C,Cc1ccc(cc1)C(C)(C)C,235.5,0.006618322,1.8421,-8.6076,0.04126,278.8668430173272,0.02492538,0.7746,-8.3285,17.60949,0.454,-9.063,0.08071,NaN,NaN,370,NaN,370,NaN,NaN
LRTFPLFDLJYEKT-UHFFFAOYSA-N,CC(c1ccc(cc1)N)C,CC(c1ccc(cc1)N)C,259.3,0.045385119,1.908,-7.6766,1.43318,295.0599676475575,0.052907749,0.7763,-7.8455,44.95012,0.399,-8.257,1.41263,NaN,NaN,2000,NaN,2000,NaN,NaN
ABZNVBFRMALDTO-UHFFFAOYSA-N,CN(CCn1c(=O)c2c(c1=O)c1c(c(c2)C)[nH]c2c1cc(O)cc2C)C,CN(CCn1c(=O)c2c(c1=O)c1c(c(c2)C)[nH]c2c1cc(O)cc2C)C,343.1,0.031129065,-0.1529,-7.6247,3.40214,362.2091685816642,0.038802286,-1.2668,-8.0786,76.41857,-1.269,-8.367,5.32406,NaN,NaN,254,NaN,254,NaN,NaN
JLZUZNKTTIRERF-UHFFFAOYSA-N,c1ccc(cc1)C(=C(c1ccccc1)c1ccccc1)c1ccccc1,c1ccc(cc1)C(=C(c1ccccc1)c1ccccc1)c1ccccc1,298.4,0.537456827,0.4165,-7.6152,0.00483,296.96813989342195,0.429016706,0.264,-7.565,0.01090,-0.168,-8.911,0.00151,NaN,NaN,299,NaN,299,NaN,NaN
QQXLDOJGLXJCSE-KNVOCYPGSA-N,CN1[C@@H]2CC[C@H]1CC(=O)C2,CN1[C@@H]2CC[C@H]1CC(=O)C2,NaN,NaN,NaN,NaN,NaN,NaN,NaN,NaN,Nan,NaN,NaN,NaN,NaN,NaN,NaN,349,NaN,349,NaN,NaN
AHTPATJNIAFOLR-UHFFFAOYSA-N,COc1nc(nc(n1)C)NC(=O)NS(=O)(=O)c1ccsc1C(=O)OC,COc1nc(nc(n1)C)NC(=O)NS(=O)(=O)c1ccsc1C(=O)OC,249.3,0.19291668,-0.3567,-9.7152,5.29814,317.1762558339823,0.157786534,-1.5441,-9.5472,147.29528,-1.584,-9.867,5.45889,NaN,NaN,930,NaN,930,NaN,NaN
USRXKJOTSNCJMA-ZOQUXTDFSA-N,CO[C@@H]1[C@H](O)[C@H](O[C@H]1n1ccc(nc1=O)N)COP(=O)(O)O,CO[C@@H]1[C@H](O)[C@H](O[C@H]1n1ccc(nc1=O)N)COP(=O)(O)O,241.3,0.114030924,0.6511,-9.3171,8.61887,291.1794232163073,0.089078362,-0.5414,-9.2112,118.14612,-0.409,-9.538,2.12287,NaN,NaN,471.2,NaN,471.2,NaN,NaN
UILZTBNYFLFCPN-UHFFFAOYSA-N,O=C1CC=C2C(=C1)Oc1c(C2)c2CCCCc2cc1,O=C1CC=C2C(=C1)Oc1c(C2)c2Cc2cc1,313.6,0.001536591,0.0621,-8.3247,5.35263,355.1538195517149,0.00023361,-0.7954,-8.3321,72.16234,-0.833,-9.158,5.29346,NaN,NaN,0,NaN,0,NaN,NaN
VACGBQVSJHCNBE-UHFFFAOYSA-N,Oc1ccc(c2c1C(=O)c1c(C2=O)c(O)ccc1N)NC(=O)c1ccccc1,Oc1ccc(c2c1C(=O)c1c(C2=O)c(O)ccc1N)NC(=O)c1ccccc1,453.0,0.606219794,-1.4641,-7.6856,4.95899,454.6541929061374,0.521935168,-2.1249,-8.1928,93.20180,-1.858,-8.407,4.28465,NaN,NaN,240,NaN,240,NaN,NaN
RWFMADJKLZWMCQ-LLVKDONJSA-N,N[C@@H]1CC(C)(C)Cc2c1nc(o2)c1ccccc1,N[C@@H]1CC(C)(C)Cc2c1nc(o2)c1ccccc1,265.4,0.577525178,0.6973,-8.0643,1.96229,366.0590445984755,0.396619835,-0.5045,-7.6417,57.60536,-0.602,-8.857,3.24315,NaN,NaN,254,NaN,254,NaN,NaN
VBASHTSSQNDDAS-CQSZACIVSA-N,C[C@H](CNc1ncnc2c1c(c1ccccc1)c([nH]2)c1ccccc1)O,C[C@H](CNc1ncnc2c1c(c1ccccc1)c([nH]2)c1ccccc1)O,286.5,0.624513474,0.5201,-7.5993,4.92408,339.77582462456473,0.502107183,-0.1603,-7.3597,101.64021,-0.557,-8.346,3.62357,NaN,NaN,460.0,NaN,370.0,NaN,DMF
TWEONIHFGKSPLC-MRXNPFEDSA-N,OC[C@@H](CNc1ncnc2c1c(c1ccccc1)c([nH]2)c1ccccc1)O,OC[C@@H](CNc1ncnc2c1c(c1ccccc1)c([nH]2)c1ccccc1)O,284.8,0.631140419,0.484,-7.6777,4.99687,344.7836440642482,0.534409412,-0.2241,-7.3569,138.62908,-0.642,-8.48,5.63197,NaN,NaN,470.0,NaN,380.0,NaN,THF
FVZGYHOOLXYJBJ-UHFFFAOYSA-N,COC(=O)c1c(C(=O)OC)c2n(c1C)nc(cc2)C,COC(=O)c1c(C(=O)OC)c2n(c1C)nc(cc2)C,336.0,0.129622276,0.0551,-7.9896,1.73399,396.1156498578392,0.220050315,-1.1411,-7.9749,71.92887,-1.114,-8.959,5.60944,NaN,NaN,380.4,NaN,380.4,NaN,cyclohexane
GNUWOCAXVRLUAO-UHFFFAOYSA-N,COC(=O)c1c(C(=O)OC)c2n(c1CC)nc(cc2)c1ccccc1,COC(=O)c1c(C(=O)OC)c2n(c1CC)nc(cc2)c1ccccc1,338.6,0.10769558,-0.0857,-8.0179,3.23557,400.9838240798954,0.263281571,-1.1034,-7.8943,148.20502,-1.148,-8.996,2.93364,NaN,NaN,386.0,NaN,386.0,NaN,cyclohexane
CHIJVOLJARTIFV-UHFFFAOYSA-N,COc1cc(OC)cc2c1cc(c1ccccc1)c(=O)o2,COc1cc(OC)cc2c1cc(c1ccccc1)c(=O)o2,301.7,0.760434555,0.1633,-7.8803,5.67851,360.8387613664251,0.549157869,-1.0314,-8.0309,62.40410,-0.835,-8.854,5.52432,NaN,NaN,348,NaN,348,NaN,chloroform
WAJKAWOYYMLWNI-UHFFFAOYSA-N,COc1ccc2c(c1)oc(=O)c(c2)c1cscc1,COc1ccc2c(c1)oc(=O)c(c2)c1cscc1,304.6,0.828463413,-0.0414,-7.8843,4.33717,373.89685888270105,0.476540103,-1.1828,-7.9512,130.89968,-1.121,-8.611,3.79029,322.438866662955,0.7014937165,372,NaN,372,NaN,chloroform
XFOFHELUDYDYMX-UHFFFAOYSA-N,N=C1Cc2ccccc2OC1=O,N=C1Cc2ccccc2OC1=O,282.8,0.003824328,0.026,-9.2625,3.70829,362.52689592252534,0.000897458,-1.0365,-9.2066,78.70718,-0.716,-9.713,3.10464,NaN,NaN,366,NaN,366,NaN,chloroform
IWWQTMCOPKVJIL-UHFFFAOYSA-N,N=C1C(=O)Oc2c(C1=N)cccc2,N=C1C(=O)Oc2c(C1=N)cccc2,NaN,NaN,NaN,NaN,NaN,NaN,NaN,NaN,Nan,NaN,NaN,NaN,NaN,NaN,NaN,374,NaN,374,NaN,chloroform
PYWVYCXTNDRMGF-UHFFFAOYSA-N,CCN(c1ccc2c(c1)[o+]c1c(c2c2ccccc2C(=O)O)ccc(c1)N(CC)CC)CC.[Cl-],CCN(c1ccc2c(c1)[o+]c1c(c2c2ccccc2C(=O)O)ccc(c1)N(CC)CC)CC.[Cl-],NaN,NaN,NaN,NaN,NaN,NaN,NaN,NaN,Nan,NaN,NaN,NaN,NaN,NaN,NaN,544.5,NaN,544.5,NaN,EtOH
CKSUPZCXBVTKMQ-UHFFFAOYSA-N,SCCC(=O)Nc1ccc2c(c1)c(ncn2)Nc1ccccc1,SCCC(=O)Nc1ccc2c(c1)c(ncn2)Nc1ccccc1,307.5,0.262917712,0.2358,-7.9035,6.75782,337.5556722175433,0.183309467,-0.549,-8.0118,51.65974,-1.068,-8.678,5.87724,NaN,NaN,545.0,NaN,544.5,NaN,EtOH
HUKPVYBUJRAUAG-UHFFFAOYSA-N,O=C1c2ccccc2c2c3c1cccc3ccc2,O=C1c2ccccc2c2c3c1cccc3ccc2,338.5,0.295116407,-0.7601,-8.1558,3.57683,365.5194528464141,0.4044512,-1.3368,-8.018,45.87139,-1.468,-8.935,3.34669,NaN,NaN,930,NaN,930,NaN,NaN
XFXPMWWXUTWYJX-UHFFFAOYSA-N,[C-]#N,[C-]#N,NaN,NaN,NaN,NaN,NaN,NaN,NaN,NaN,Nan,NaN,NaN,NaN,NaN,NaN,NaN,254,NaN,254,NaN,NaN
CABMTIJINOIHOD-UHFFFAOYSA-N,CC(C1(C)N=C(NC1=O)c1nc2ccccc2cc1C(=O)O)C,CC(C1(C)N=C(NC1=O)c1nc2ccccc2cc1C(=O)O)C,288.5,0.038537049,-0.5172,-9.1579,4.46107,327.22142624836016,0.149208177,-1.4292,-8.99,10.30611,-1.571,-9.771,4.10501,NaN,NaN,930,NaN,930,NaN,NaN
WJYBKZUTNUHUFC-UHFFFAOYSA-N,c1ccc(cc1)B1C=CC(C1(c1ccccc1)c1ccccc1)(c1ccccc1)c1ccccc1,c1ccc(cc1)B1C=CC(C1(c1ccccc1)c1ccccc1)(c1ccccc1)c1ccccc1,274.0,0.095522519,-0.0009,-8.3743,0.20673,324.65095157241075,0.15390401,-0.4488,-7.5833,4.58377,-1.333,-8.95,0.29988,NaN,NaN,560,NaN,560,NaN,NaN
LLZSZINOZUCTQC-UHFFFAOYSA-N,Oc1ccc(cc1C=Nc1nccc(c1)C(=O)O)N=Nc1ccc(cc1)[N+](=O)[O-],Oc1ccc(cc1C=Nc1nccc(c1)C(=O)O)N=Nc1ccc(cc1)[N+](=O)[O-],440.6,0.001150054,-1.2539,-8.4637,6.09644,519.6320134346339,0.009368223,-2.5841,-8.6862,33.33023,-1.791,-9.479,5.70191,NaN,NaN,448.0,NaN,273.0,NaN,Water
PITHOEKKVYILLJ-UHFFFAOYSA-N,Oc1ccc(cc1C=Nc1c(cc(cc1C(C)C)S(=O)(=O)O)C(C)C)N=Nc1ccc(cc1)[N+](=O)[O-],Oc1ccc(cc1C=Nc1c(cc(cc1C(C)C)S(=O)(=O)O)C(C)C)N=Nc1ccc(cc1)[N+](=O)[O-],440.3,0.000155496,-1.3612,-8.6677,5.36546,528.7172639893546,0.007951956,-2.7271,-8.9508,132.82822,-2.004,-9.523,4.76441,NaN,NaN,380.0,NaN,267.0,NaN,Chloroform
NFNHYRHTBUNOSQ-UHFFFAOYSA-N,N#CC(=C(c1ccccc1)C=Cc1cc2c3ccccc3n(c2cc1OC)C)C#N,N#CC(=C(c1ccccc1)C=Cc1cc2c3ccccc3n(c2cc1OC)C)C#N,356.9,1.337941657,-0.9599,-7.688,12.50639,390.62444362162466,0.884120391,-1.2886,-7.691,112.08551,-1.478,-8.458,12.30261,390.39073336452486,1.0420888638,476.0,NaN,458.0,NaN,DMSO
GVEGTZPEELPQCO-UHFFFAOYSA-N,N#CC(=Cc1cc2c(cc1OC)n(c1c2cccc1)C)c1nc2c(s1)cccc2,N#CC(=Cc1cc2c(cc1OC)n(c1c2cccc1)C)c1nc2c(s1)cccc2,344.0,1.239460926,-0.4462,-7.6131,4.61741,377.88539593265364,0.714884427,-0.9783,-7.6944,184.08084,-1.212,-8.424,3.97708,366.51351841444796,1.0716245616,443.0,NaN,430.0,NaN,DMSO
QGJOPFRUJISHPQ-UHFFFAOYSA-N,S=C=S,S=C=S,NaN,NaN,NaN,NaN,NaN,NaN,NaN,NaN,Nan,NaN,NaN,NaN,NaN,NaN,NaN,419.0,NaN,406.0,NaN,DCM
WTDRYGHTAWVCQH-UHFFFAOYSA-N,COc1ccc2c(c1c1c(OC)ccc3c1ccc(c3)C(C)(C)C)ccc(c2)C(C)(C)C,COc1ccc2c(c1c1c(OC)ccc3c1ccc(c3)C(C)(C)C)ccc(c2)C(C)(C)C,301.9,0.233030558,0.7249,-7.4849,2.19398,335.6367038589704,0.134606617,-0.029,-7.4307,124.21315,-0.355,-8.228,2.49384,NaN,NaN,342,NaN,342,NaN,CH 2 Cl 2 + 0.2 mmol l − 1 Bu 4 NBF
CSHWQDPOILHKBI-UHFFFAOYSA-N,c1cc2cccc3c2c(c1)c1cccc2c1c3ccc2,c1cc2cccc3c2c(c1)c1cccc2c1c3ccc2,387.6,0.512903787,-0.4546,-7.0765,0.00035,408.24563189168146,0.623108062,-0.9259,-6.9909,0.00326,-1.343,-8.098,0.00027,NaN,NaN,450,NaN,450,NaN,CH 2 Cl 2 + 0.2 mmol l − 1 Bu 4 NBF
PTWOAUBIVLHBAL-UHFFFAOYSA-N,O=C(Cc1cccc2c1cccc2)NC1CC(C)(C)NC(C1)(C)C,O=C(Cc1cccc2c1cccc2)NC1CC(C)(C)NC(C1)(C)C,290.5,0.092913629,0.4304,-8.2745,2.99702,313.9635310344484,0.004920666,-0.288,-8.066,76.24979,-0.644,-8.797,2.13269,NaN,NaN,160,NaN,160,NaN,NaN
GUAADMADQNPRJZ-UHFFFAOYSA-N,CC[NH+](CCON=C(c1ccc(cc1)C)C)CC.[Cl-],CC[NH+](CCON=C(c1ccc(cc1)C)C)CC.[Cl-],NaN,NaN,NaN,NaN,NaN,NaN,NaN,NaN,Nan,NaN,NaN,NaN,NaN,NaN,NaN,370,NaN,370,NaN,NaN
VAYOSLLFUXYJDT-RDTXWAMCSA-N,CCN(C(=O)[C@H]1CN(C)[C@H]2C(=C1)c1cccc3c1c(C2)c[nH]3)CC,CCN(C(=O)[C@H]1CN(C)[C@H]2C(=C1)c1cccc3c1c(C2)c[nH]3)CC,288.7,0.335516959,1.0062,-7.4787,3.84470,312.93336296189716,0.108385049,0.0399,-7.5672,38.12405,-0.267,-8.293,3.61778,NaN,NaN,550.0,NaN,509.0,NaN,NaN
VSUOKLTVXQRUSG-ZFORQUDYSA-N,OC(=O)[C@H]1O[C@@H](Oc2cc(O)c3c(c2)oc(cc3=O)c2ccc(c(c2)O)O)[C@@H]([C@H]([C@@H]1O)O)O,OC(=O)[C@H]1O[C@@H](Oc2cc(O)c3c(c2)oc(cc3=O)c2ccc(c(c2)O)O)[C@@H]([C@H]([C@@H]1O)O)O,283.5,0.451393408,-0.1045,-8.4506,6.58995,360.523984895329,0.000859852,-1.1674,-8.7617,72.78171,-1.214,-9.38,4.84366,NaN,NaN,343,NaN,343,NaN,NaN
QAIPRVGONGVQAS-UHFFFAOYSA-N,OC(=O)C=Cc1ccc(c(c1)O)O,OC(=O)C=Cc1ccc(c(c1)O)O,277.8,0.374476214,0.097,-8.2287,5.76660,302.2530434068836,0.335979358,-1.0047,-8.7034,37.22505,-1.007,-9.14,2.45582,NaN,NaN,324.5,NaN,324.5,NaN,NaN
LWROVTMVBSWNIL-UHFFFAOYSA-N,OC(=O)C(C(C(=O)C=Cc1ccc(cc1)O)(C(=O)O)O)O,OC(=O)C(C(C(=O)C=Cc1ccc(cc1)O)(C(=O)O)O)O,287.4,0.873426356,-0.4942,-8.4316,1.59839,345.6487270853182,0.005936292,-1.1528,-8.5038,158.54989,-1.451,-9.5,5.83796,313.2337754768315,0.8244459431,314.9,NaN,314.9,NaN,NaN
DOUMFZQKYFQNTF-MRXNPFEDSA-N,O=C(O[C@@H](C(=O)O)Cc1ccc(c(c1)O)O)C=Cc1ccc(c(c1)O)O,O=C(O[C@@H](C(=O)O)Cc1ccc(c(c1)O)O)C=Cc1ccc(c(c1)O)O,278.0,0.573768866,0.1045,-8.1056,1.77730,303.80837639182465,0.316683333,-0.9195,-8.4918,41.49590,-0.911,-8.97,3.27311,NaN,NaN,329,NaN,329,NaN,NaN
NZTWOIMQWMZIRE-UHFFFAOYSA-N,c1ccc(cc1)c1nc(nnc1c1ccccc1)c1ccc(cc1)c1nnc(c(n1)c1ccccc1)c1ccccc1,c1ccc(cc1)c1nc(nnc1c1ccccc1)c1ccc(cc1)c1nnc(c(n1)c1ccccc1)c1ccccc1,398.8,0.029635945,-0.5535,-8.2855,0.00031,422.86561529844363,0.003776152,-0.9257,-7.8548,0.87770,-1.69,-9.237,0.05074,NaN,NaN,276.0,NaN,275.0,NaN,NaN
DZVFPRGNNGKGHN-UHFFFAOYSA-N,c1ccc2c(c1)oc(n2)c1ccc(cc1)c1nc2c([nH]1)c1ccccc1c1c2cccc1,c1ccc2c(c1)oc(n2)c1ccc(cc1)c1nc2c([nH]1)c1ccccc1c1c2cccc1,324.7,1.663106443,-0.2854,-7.5064,1.81699,400.07808456116055,0.885253792,-1.0537,-7.1862,101.10819,-1.34,-8.495,2.27179,NaN,NaN,376,NaN,376,NaN,NaN
KGJHQBJAHCVHEN-UHFFFAOYSA-N,c1ccc(cc1)c1[nH]c(nc1c1ccccc1)c1ccc(cc1)c1nc2c(o1)cccc2,c1ccc(cc1)c1[nH]c(nc1c1ccccc1)c1ccc(cc1)c1nc2c(o1)cccc2,317.5,1.776014146,-0.1533,-7.5215,2.27982,410.9519337272246,0.90251395,-1.0793,-7.1906,116.00700,-1.268,-8.575,2.414,328.40884965231754,1.5229007055,357,NaN,357,NaN,NaN
ZHZPFVJLQDKZQB-UHFFFAOYSA-N,c1ccc(cc1)C=Cc1nc2c([nH]1)c1ccccc1c1c2cccc1,c1ccc(cc1)C=Cc1nc2c([nH]1)c1ccccc1c1c2cccc1,313.1,0.471436605,0.2459,-7.4148,3.77904,389.2753482119424,0.387021743,-0.4311,-7.0385,32.14412,-0.837,-8.308,3.23614,NaN,NaN,367,NaN,367,NaN,NaN
RBKHNGHPZZZJCI-UHFFFAOYSA-N,Nc1ccc(cc1)C(=O)c1ccccc1,Nc1ccc(cc1)C(=O)c1ccccc1,298.6,0.004084622,0.4162,-8.1454,4.48352,360.9438090407676,0.001617798,-0.5234,-8.3598,35.70752,-0.425,-8.701,4.84286,NaN,NaN,0,NaN,0,NaN,NaN
XLYOFNOQVPJJNP-UHFFFAOYSA-N,O,O,NaN,NaN,NaN,NaN,NaN,NaN,NaN,NaN,Nan,NaN,NaN,NaN,NaN,NaN,NaN,330,16982.43652461746,330,16982.43652461746,NaN
QTXVAVXCBMYBJW-UHFFFAOYSA-N,CC(=O)CC(c1c(O)oc2c(c1=O)cccc2)c1ccccc1,CC(=O)CC(c1c(O)oc2c(c1=O)cccc2)c1ccccc1,277.7,0.000205284,0.4242,-8.5576,3.25100,365.95099883560704,0.000115017,-0.9971,-8.3562,72.64376,-0.9,-9.426,5.55424,NaN,NaN,254,NaN,254,NaN,NaN
REJVPVQCJKPFSI-UHFFFAOYSA-N,O=C1OC(=O)C(=C1c1c(C)sc2c1cccc2)c1c(C)sc2c1cccc2,O=C1OC(=O)C(=C1c1c(C)sc2c1cccc2)c1c(C)sc2c1cccc2,351.6,0.24548361,-1.1595,-8.361,4.45809,431.69985517236654,0.013995924,-1.9956,-8.2956,81.08334,-1.724,-8.672,4.21739,NaN,NaN,403,NaN,403,NaN,NaN
SOKYMEBHFVTGJK-UHFFFAOYSA-N,O=C1NC(=O)C(=C1c1c(C)sc2c1cccc2)c1c(C)sc2c1cccc2,O=C1NC(=O)C(=C1c1c(C)sc2c1cccc2)c1c(C)sc2c1cccc2,356.6,0.187526909,-0.8904,-8.1587,1.32934,426.20900105020166,0.050869519,-1.8135,-8.1474,48.24480,-1.542,-8.538,1.49456,NaN,NaN,390,NaN,390,NaN,NaN
OBIQFMASIKZGTN-UHFFFAOYSA-N,O=C1N(C)C(=O)C(=C1c1c(C)sc2c1cccc2)c1c(C)sc2c1cccc2,O=C1N(C)C(=O)C(=C1c1c(C)sc2c1cccc2)c1c(C)sc2c1cccc2,362.8,0.151081536,-0.8141,-8.1031,0.82053,429.15956526654094,0.07954359,-1.7725,-8.094,7.98716,-1.439,-8.47,0.63315,NaN,NaN,397,NaN,397,NaN,NaN
ZJZFQGRCIVHIDT-UHFFFAOYSA-N,CCCCCc1sc2c(c1C1=C(C(=O)NC1=O)c1c(C)sc3c1cccc3)cccc2,Cc1sc2c(c1C1=C(C(=O)NC1=O)c1c(C)sc3c1cccc3)cccc2,356.8,0.183425681,-0.89,-8.1605,1.37811,430.50068890799884,0.013619561,-1.8347,-8.1445,49.35661,-1.533,-8.589,1.75582,NaN,NaN,403.0,NaN,390.0,NaN,NaN
ADNAFODYHDJOHL-UHFFFAOYSA-N,O=C1C(=C(C(=O)N1C)c1c(C)sc2c1cccc2)c1c(C)[nH]c2c1cccc2,O=C1C(=C(C(=O)N1C)c1c(C)sc2c1cccc2)c1c(C)[nH]c2c1cccc2,375.4,0.178206788,-0.5546,-7.7358,3.70613,466.6322860575975,0.150554502,-1.6333,-7.7291,114.94586,-1.286,-8.372,3.98316,NaN,NaN,447,NaN,447,NaN,NaN
QJYSPYINMTUKPT-UHFFFAOYSA-N,CCCn1c(C)c(c2c1cccc2)C1=C(C(=O)N(C1=O)C)c1c(C)sc2c1cccc2,CCCn1c(C)c(c2c1cccc2)C1=C(C(=O)N(C1=O)C)c1c(C)sc2c1cccc2,382.8,0.182365179,-0.5283,-7.6096,4.04896,477.22940109893636,0.142450657,-1.6045,-7.647,166.40043,-1.146,-8.282,5.11729,NaN,NaN,454,NaN,454,NaN,NaN
OEEHDIBJKRSXHC-UHFFFAOYSA-N,COc1ccc2c(c1)ccc(c2)C=Cc1ccnc(n1)c1ccccc1,COc1ccc2c(c1)ccc(c2)C=Cc1ccnc(n1)c1ccccc1,313.3,1.133093333,-0.2303,-7.7382,3.97405,329.7452085252757,0.561928371,-0.6328,-7.7755,14.76277,-1.023,-8.663,2.9505,321.97832344570975,1.2576381027,351,NaN,351,NaN,NaN
CXKWCBBOMKCUKX-UHFFFAOYSA-M,CN(c1ccc2c(c1)[s+]c1c(n2)ccc(c1)N(C)C)C.[Cl-],CN(c1ccc2c(c1)[s+]c1c(n2)ccc(c1)N(C)C)C.[Cl-],NaN,NaN,NaN,NaN,NaN,NaN,NaN,NaN,Nan,NaN,NaN,NaN,NaN,NaN,NaN,365.0,NaN,254.0,NaN,NaN
QIQXTHQIDYTFRH-UHFFFAOYSA-N,CCCCCCCCCCCCCCCCCC(=O)O,CCCCCCCCCCCCCCCCCC(=O)O,NaN,NaN,NaN,NaN,NaN,NaN,NaN,NaN,Nan,NaN,NaN,NaN,NaN,NaN,NaN,254,NaN,254,NaN,NaN
LJJKNPQAGWVLDQ-SNVBAGLBSA-N,SC[C@H](C(=O)NCC(=O)O)Cc1ccccc1,SC[C@H](C(=O)NCC(=O)O)Cc1ccccc1,231.6,0.000188261,1.3525,-9.1753,4.03477,284.04169165063837,0.00153529,-0.1922,-9.0076,99.35815,-0.458,-9.091,3.65967,NaN,NaN,365,NaN,365,NaN,NaN
LRHPLDYGYMQRHN-UHFFFAOYSA-N,CCCCO,CCCCO,NaN,NaN,NaN,NaN,NaN,NaN,NaN,NaN,Nan,NaN,NaN,NaN,NaN,NaN,NaN,425.0,NaN,402.0,NaN,Butanol
DAABESMWSJVEBR-UHFFFAOYSA-N,CCCCC(CCn1c(=O)c2c(c1c1cccs1)c(=O)n(c2c1cccs1)CCC(CCCC)CC)CC,C(CCn1c(=O)c2c(c1c1cccs1)c(=O)n(c2c1cccs1)C(C)CC)CC,419.5,0.672153768,-0.8538,-7.215,0.31065,437.33403317637976,0.566063097,-1.5057,-7.7096,45.13237,-1.258,-8.287,0.68634,NaN,NaN,549.0,NaN,548.0,NaN,NaN
RZMTZPYCAWUTPQ-UHFFFAOYSA-N,CCCCCCCCn1c(=O)c2c(c1c1ccc(s1)c1ccc(cc1)OC)c(=O)n(c2c1ccc(s1)c1ccc(cc1)OC)CCCCCCCC,Cn1c(=O)c2c(c1c1ccc(s1)c1ccc(cc1)OC)c(=O)n(c2c1ccc(s1)c1ccc(cc1)OC)C,466.9,1.624566904,-0.9477,-6.7701,1.92911,462.8002926670536,0.774005554,-1.4752,-7.4857,13.77894,-1.283,-8.198,2.13835,520.6794599749683,1.22771103,605,NaN,605,NaN,NaN
FUJLAVSOJNDDIQ-UHFFFAOYSA-N,CCCCC(CCn1c(=O)c2c(c1c1ccc(s1)c1ccc(cc1)OC)c(=O)n(c2c1ccc(s1)c1ccc(cc1)OC)CCC(CCCC)CC)CC,C(CCn1c(=O)c2c(c1c1ccc(s1)c1ccc(cc1)OC)c(=O)n(c2c1ccc(s1)c1ccc(cc1)OC)C(C)CC)CC,446.8,1.092684384,-0.8101,-6.9033,0.22808,451.17976130095946,0.660490151,-1.4076,-7.4892,75.88393,-1.21,-8.193,2.50476,NaN,NaN,568,NaN,568,NaN,NaN
NQRYJNQNLNOLGT-UHFFFAOYSA-N,C1CCCNC1,C1CCCNC1,NaN,NaN,NaN,NaN,NaN,NaN,NaN,NaN,Nan,NaN,NaN,NaN,NaN,NaN,NaN,123,NaN,123,NaN,NaN
JANQQPWTLXUSCD-UHFFFAOYSA-N,Nc1nc(=O)c2c([nH]1)n(CCCCC(P(=O)(O)O)(F)F)cn2,Nc1nc(=O)c2c([nH]1)n(C(P(=O)(O)O)(F)F)cn2,249.7,0.0013793,1.2937,-8.6737,8.49826,332.21918115086726,0.001116621,-0.6561,-8.6745,114.72211,-0.906,-9.254,11.84476,NaN,NaN,397,NaN,397,NaN,CH 2 Cl
LISFMEBWQUVKPJ-UHFFFAOYSA-N,O=c1ccc2c([nH]1)cccc2,O=c1ccc2c([nH]1)cccc2,285.4,0.153235644,0.2172,-8.4321,4.17368,321.78613653128383,0.225759227,-0.8503,-8.6008,57.47325,-0.964,-9.074,4.05392,NaN,NaN,437,NaN,437,NaN,NaN
GPOMKCKAJSZACG-UHFFFAOYSA-N,c1ccc(cc1)c1ccc2c(c1)cc1c(c2)cccc1,c1ccc(cc1)c1ccc2c(c1)cc1c(c2)cccc1,359.6,0.106460252,-0.1752,-7.4265,0.03025,368.67141958222913,0.158742022,-0.6903,-7.2859,5.92712,-1.134,-8.366,0.01409,NaN,NaN,317,NaN,317,NaN,NaN
TWHBXDQJJOIEEH-UHFFFAOYSA-N,CC1(C)c2cc3cc4ccccc4cc3cc2c2c1cccc2,CC1(C)c2cc3cc4ccccc4cc3cc2c2c1cccc2,363.3,0.131112395,-0.1902,-7.2841,0.75925,372.7726951458318,0.169688264,-0.6887,-7.184,32.53952,-1.094,-8.265,0.81313,NaN,NaN,338,NaN,338,NaN,NaN
QZICVSAXBDKHAP-UHFFFAOYSA-N,c1ccc2c(c1)cc1c(c2)cc2c(c1)c1ccccc1o2,c1ccc2c(c1)cc1c(c2)cc2c(c1)c1ccccc1o2,377.8,0.137287912,-0.3585,-7.2554,0.92539,374.1225057498602,0.176057436,-0.8083,-7.2855,49.82398,-1.323,-8.311,1.24035,NaN,NaN,352,NaN,352,NaN,NaN
SARKSIVGGPWEIG-UHFFFAOYSA-N,c1ccc2c(c1)cc1c(c2)cc2c(c1)c1ccccc1s2,c1ccc2c(c1)cc1c(c2)cc2c(c1)c1ccccc1s2,388.3,0.100536336,-0.4087,-7.1951,0.99645,375.02782336812965,0.172049341,-0.8127,-7.2805,116.59263,-1.332,-8.096,1.52491,NaN,NaN,344,NaN,344,NaN,NaN
NQYBWXRQDSYDCE-UHFFFAOYSA-N,CCCc1ccc2c(c1)c1cc3cc4ccccc4cc3cc1n2CC,CCCc1ccc2c(c1)c1cc3cc4ccccc4cc3cc1n2CC,403.3,0.121881969,-0.1519,-6.7955,2.22672,391.1173451277718,0.14253411,-0.6855,-6.9919,65.70325,-1.111,-7.795,1.84069,NaN,NaN,360,NaN,360,NaN,NaN
DIKMKFZZAWNFKG-UHFFFAOYSA-N,CCOC(=O)c1ccn2c(c1)nc1c2cccc1,CCOC(=O)c1ccn2c(c1)nc1c2cccc1,341.4,0.167502226,-0.3236,-7.9571,1.25484,393.4757169327314,0.296964189,-1.413,-7.893,45.53853,-1.312,-8.813,1.89972,NaN,NaN,248,42213,248,42213,dichloromethane
IPJRZMYUSKBBEC-UHFFFAOYSA-N,CCOC(=O)c1cc2nc3c(n2cc1C)cccc3,CCOC(=O)c1cc2nc3c(n2cc1C)cccc3,346.6,0.170017194,-0.249,-7.8245,5.20712,377.19561425465065,0.227052778,-1.0173,-7.7653,53.84469,-1.215,-8.652,3.12272,NaN,NaN,253,49202,253,49202,dichloromethane
MZHXFCZPIREELO-UHFFFAOYSA-N,CCOC(=O)c1ccn2c(c1C)nc1c2cccc1,CCOC(=O)c1ccn2c(c1C)nc1c2cccc1,335.5,0.186890134,-0.1725,-7.8526,1.16284,378.00060489482826,0.263524174,-1.0802,-7.7992,41.67550,-1.164,-8.666,4.04486,NaN,NaN,250,40822,250,40822,dichloromethane
JKRZCSWJEGZKTO-UHFFFAOYSA-N,CCOC(=O)c1c(C)cn2c(c1C)nc1c2cccc1,CCOC(=O)c1c(C)cn2c(c1C)nc1c2cccc1,327.6,0.160534339,0.1043,-7.7202,2.56576,365.73509854130873,0.204928779,-0.742,-7.6919,27.85473,-0.977,-8.543,3.48513,NaN,NaN,250,55090,250,55090,dichloromethane
SJXVTLHPACJCKS-UHFFFAOYSA-N,CCOC(=O)c1ccn2c(c1c1ccccc1)nc1c2cccc1,CCOC(=O)c1ccn2c(c1c1ccccc1)nc1c2cccc1,337.5,0.179495201,-0.2184,-7.8634,1.40780,369.7709466313858,0.211024708,-0.855,-7.7035,50.89517,-1.169,-8.692,2.73553,NaN,NaN,256,45612,256,45612,dichloromethane