inchikey,smi_pre,smi_post,lambda_sTDA (nm),f1_sTDA,lumo_dft,homo_dft,dmom_dft (D),lambda_z (nm),f1_z,lumo_z,homo_z,dmom_z (D),lumo_mopac,homo_mopac,dmom_mopac (D),lambda_tddft (nm),f1_tddft,lambda_exp_max (nm),epsilon_exp_max ,lambda_exp_min (nm),epsilon_exp_min ,solvent
HYQURIFBJURHMX-UHFFFAOYSA-N,COc1ccc(cc1)c1nc2CCc3c(c2c2c1c1ccc(cc1CC2)C#N)ccc(c3)C#N,COc1ccc(cc1)c1nc2CCc3c(c2c2c1c1ccc(cc1CC2)C#N)ccc(c3)C#N,304.8,0.514951871,-0.4781,-8.1103,4.23960,340.990644679603,0.463108176,-0.8554,-7.8676,30.16599,-1.345,-8.953,3.56633,NaN,NaN,336.0,NaN,237.0,NaN,Acetonitrile
FGKPRJKFTCIRJB-UHFFFAOYSA-N,c1ccc(cc1)Cn1c(nc(c1c1ccco1)c1ccco1)c1ccccc1,c1ccc(cc1)Cn1c(nc(c1c1ccco1)c1ccco1)c1ccccc1,253.5,0.594584348,1.1711,-7.4325,3.04915,404.2523586746125,0.343052414,-0.2124,-6.8503,95.37407,-0.408,-8.272,4.64265,NaN,NaN,287,NaN,287,NaN,NaN
JPZXHKDZASGCLU-LBPRGKRZSA-N,OC(=O)[C@H](Cc1ccc2c(c1)cccc2)N,OC(=O)[C@H](Cc1ccc2c(c1)cccc2)N,288.1,0.057081419,0.502,-8.2591,4.85975,315.7224303679747,0.008479828,-0.1684,-7.9801,98.91033,-0.853,-9.215,5.57157,NaN,NaN,412.0,1690,256.0,1600,NaN
AVKSPBJBGGHUMW-XLPZGREQSA-N,OC[C@H]1O[C@H](C[C@@H]1O)n1cc(C)c(=S)[nH]c1=O,OC[C@H]1O[C@H](C[C@@H]1O)n1cc(C)c(=S)[nH]c1=O,350.6,0.000625397,-0.1061,-8.5243,4.70099,494.15782545039326,6.6104e-05,-1.4601,-8.8865,86.54015,-1.327,-8.792,5.04958,NaN,NaN,280,NaN,280,NaN,NaN
BRNPMAHMOHDRLR-UHFFFAOYSA-N,CCCCC1(CCCC)c2cc3c(C#Cc4ccccc4)c4ccccc4c(c3cc2c2c1cc(Br)cc2)C#Cc1ccccc1,C1(C)c2cc3c(C#Cc4ccccc4)c4ccccc4c(c3cc2c2c1cc(Br)cc2)C#Cc1ccccc1,444.5,1.053266285,-1.0131,-7.0167,1.69431,480.37271757266046,0.842720894,-1.2643,-6.7804,625.15201,-1.748,-8.075,2.07162,NaN,NaN,481,NaN,481,NaN,dichloromethane
KAHHQQNOFWVBKV-UHFFFAOYSA-N,CCOCCCn1c(Nc2ccc(cc2)[N+](=O)[O-])nc2c1cc1oc(=O)c(c(c1c2)C)C(=O)N,CCOCCCn1c(Nc2ccc(cc2)[N+](=O)[O-])nc2c1cc1oc(=O)c(c(c1c2)C)C(=O)N,313.9,0.005861792,-0.4819,-8.07,8.11720,422.7214401824196,0.000116177,-2.5131,-8.3931,128.42516,-1.604,-8.931,10.21555,NaN,NaN,382,NaN,382,NaN,ethanol
MMDUKUSNQNWVET-VYUBKLCTSA-N,OC[C@H]1O[C@H]([C@@H]([C@H]([C@@H]1O)O)O)c1c(O)c([C@@H]2OC[C@@H]([C@@H]([C@H]2O)O)O)c2c(c1O)c(=O)cc(o2)c1ccc(cc1)O,OC[C@H]1O[C@H]([C@@H]([C@H]([C@@H]1O)O)O)c1c(O)c([C@@H]2OC[C@@H]([C@@H]([C@H]2O)O)O)c2c(c1O)c(=O)cc(o2)c1ccc(cc1)O,284.0,0.326359923,0.059,-8.2463,4.49048,355.052114563298,8.7024e-05,-1.035,-8.5163,104.11142,-1.092,-9.368,3.34422,NaN,NaN,NaN,NaN,NaN,NaN,NaN
CDQRNUYUQDCLGR-UHFFFAOYSA-N,Clc1ccccc1N=Nc1c(=O)[nH]c2n(c1N)c1ccccc1n2,Clc1ccccc1N=Nc1c(=O)[nH]c2n(c1N)c1ccccc1n2,442.6,0.019946796,-0.3568,-8.1419,4.55485,521.3801446825216,0.000887756,-1.2817,-8.2447,83.60570,-1.451,-9.007,4.81991,NaN,NaN,425.0,NaN,395.0,NaN,Chloroform
DCVPIIRSZVHLGF-UHFFFAOYSA-N,N#CC(=Cc1ccc(s1)c1ccc(c2c1nc(s2)C)c1ccc(cc1)N(c1ccccc1)c1ccccc1)C(=O)O,N#CC(=Cc1ccc(s1)c1ccc(c2c1nc(s2)C)c1ccc(cc1)N(c1ccccc1)c1ccccc1)C(=O)O,366.5,1.953353104,-1.0388,-7.3821,7.10468,435.1849715882894,0.872503258,-1.574,-7.3898,567.01962,-1.731,-8.137,6.4172,NaN,NaN,423,NaN,423,NaN,NaN
ZAEQAKUCEIEUNM-UHFFFAOYSA-N,CCCCCCn1cc(c2c1ccc(c2)c1ccc(cc1)N(c1ccccc1)c1ccccc1)C=C1C(=O)NC(=O)NC1=O,Cn1cc(c2c1ccc(c2)c1ccc(cc1)N(c1ccccc1)c1ccccc1)C=C1C(=O)NC(=O)NC1=O,322.0,1.127876793,-0.5665,-7.2066,6.38407,419.00709160359463,0.393250144,-1.6164,-7.3038,399.87220,-1.381,-8.064,7.85437,351.57859920385494,0.8209513417,464,48500,464,48500,NaN
PDPJPYQNJFQWNL-UHFFFAOYSA-N,c1ccc(nc1)CN(c1ccc(cc1)C=Cc1cnc2c(n1)cccc2)Cc1ccccn1,c1ccc(nc1)CN(c1ccc(cc1)C=Cc1cnc2c(n1)cccc2)Cc1ccccn1,347.0,1.296295244,-0.4358,-7.3803,1.96006,382.7854226783071,0.042292484,-0.9852,-7.6586,25.40380,-1.138,-8.431,1.8295,371.64411441275575,1.2081530905,257,NaN,257,NaN,NaN
CUARDLROGHOULG-UHFFFAOYSA-N,O=C1CN2C(N1)(C)C(c1c2ccc(c1)c1cccc2c1sc1c2cccc1)(C)C,O=C1CN2C(N1)(C)C(c1c2ccc(c1)c1cccc2c1sc1c2cccc1)(C)C,283.4,0.141926422,0.5914,-7.5843,3.16930,296.61291484570256,0.030173749,-0.2041,-8.105,48.87003,-0.73,-8.369,4.41437,NaN,NaN,333.0,6400.0,289.0,2100.0,THF
INFKPGAKIVQFSU-UHFFFAOYSA-N,OC(=O)C(Cc1ccccc1)NC1=CC(=O)C(=CC1=O)NC(C(=O)O)Cc1ccccc1,OC(=O)C(Cc1ccccc1)NC1=CC(=O)C(=CC1=O)NC(C(=O)O)Cc1ccccc1,448.1,0.002672762,-1.6082,-8.7883,2.82916,514.6708111477944,0.006343019,-2.9365,-8.9509,68.73798,-1.905,-9.77,4.52743,NaN,NaN,205,NaN,205,NaN,NaN
LBQMWQNIFOSOGT-UHFFFAOYSA-N,c1ccc2c(c1)nc(s2)c1ccc(cc1)c1ccc(cc1)n1c2ccccc2c2c1cccc2,c1ccc2c(c1)nc(s2)c1ccc(cc1)c1ccc(cc1)n1c2ccccc2c2c1cccc2,303.3,1.543753,-0.2252,-7.6645,1.64386,344.9755103102495,0.980445789,-0.7694,-7.6676,230.51397,-1.265,-8.251,1.34219,307.53861592270727,1.5677417291,452.0,NaN,448.0,NaN,NaN
VZMIOMLYUSEHBG-UHFFFAOYSA-N,c1ccc(cc1)N(c1ccccc1)c1ccc(cc1)c1nc2c([nH]1)c1ccccc1c1c2cccc1,c1ccc(cc1)N(c1ccccc1)c1ccc(cc1)c1nc2c([nH]1)c1ccccc1c1c2cccc1,325.1,1.223746696,0.4372,-7.0475,3.24652,403.0695656875932,0.761675747,-0.4958,-6.9112,26.14640,-0.812,-7.96,3.49847,332.34384015772116,1.2148884916,373,NaN,373,NaN,NaN
WMNXEDVZJYRUSD-UHFFFAOYSA-N,Cc1cc2sc(nc2cc1C)N=Nc1c2ccccc2n(c1C)C,Cc1cc2sc(nc2cc1C)N=Nc1c2ccccc2n(c1C)C,426.7,0.000421908,-0.361,-7.448,3.89249,527.143700703672,0.008169866,-1.2939,-7.4605,58.20043,-1.086,-8.282,4.01757,NaN,NaN,517.0,NaN,460.0,NaN,Chloroform
WKCWDHNWWKSKOA-UHFFFAOYSA-N,Clc1ccc2c(c1)nccc2n1nnc(c1C)C(=O)C=Cc1ccco1,Clc1ccc2c(c1)nccc2n1nnc(c1C)C(=O)C=Cc1ccco1,319.0,0.001414183,-0.5675,-8.3211,1.78310,374.6878162753208,0.002292079,-1.2267,-8.1216,166.45603,-1.673,-9.217,2.51897,NaN,NaN,234,NaN,234,NaN,methanol
SDNUSMVTZTXESZ-UHFFFAOYSA-N,CCCCCCCCc1sc(c(c1C#N)C#N)c1sc(c(c1C#N)C#N)CCCCCCCC,Cc1sc(c(c1C#N)C#N)c1sc(c(c1C#N)C#N)C,307.6,0.543364651,-1.4225,-9.3211,3.51102,393.7256221197322,0.350318582,-1.8713,-8.6107,3.31336,-2.202,-9.968,6.08963,NaN,NaN,339,NaN,339,NaN,NaN
NOEGNKMFWQHSLB-UHFFFAOYSA-N,OCc1ccc(o1)C=O,OCc1ccc(o1)C=O,299.9,8.2738e-05,0.137,-9.1874,3.39167,367.5784121123737,1.345e-06,-1.092,-8.8724,41.34044,-0.853,-9.912,2.24632,NaN,NaN,0,NaN,0,NaN,NaN
LAIBVWSBKMQZSP-UHFFFAOYSA-N,O=C(c1c2[nH]c3ncccc3nc2n(c1=O)CCc1ccccc1)c1ccccc1,O=C(c1c2[nH]c3ncccc3nc2n(c1=O)CCc1ccccc1)c1ccccc1,322.2,0.694688386,-0.6825,-8.2969,3.45843,406.2391821936555,0.641957185,-1.7322,-8.251,84.17389,-1.684,-8.996,4.38603,NaN,NaN,392,NaN,392,NaN,NaN
BIDQIQMSPHPNJW-UXHICEINSA-N,COC(=O)[C@@]1(C[C@]1(O[Si](C)(C)C)c1ccccc1)c1ccc(cc1)Br,COC(=O)[C@@]1(C[C@]1(O[Si](C)(C)C)c1ccccc1)c1ccc(cc1)Br,237.1,0.013756871,1.2711,-8.6447,2.75124,280.063696420835,0.016917697,0.037,-8.7652,435.29037,-0.154,-9.228,3.94425,NaN,NaN,NaN,NaN,NaN,NaN,NaN
BQFPIAZCLHWYAB-UHFFFAOYSA-N,CCCCCCn1c2ccc(cc2c2c1cccc2)c1nnn[nH]1,Cn1c2ccc(cc2c2c1cccc2)c1nnn[nH]1,294.2,0.029564093,0.3846,-8.0477,7.56822,331.59721424312295,0.061763101,-0.7143,-8.0671,153.74091,-1.0,-8.608,9.34349,NaN,NaN,542,NaN,542,NaN,NaN
BNIQLIHZPWEJGY-UHFFFAOYSA-N,CC(c1ccc(cc1)c1ccc(s1)c1ccc(s1)c1ccc(cc1)C(C)(C)C)(C)C,CC(c1ccc(cc1)c1ccc(s1)c1ccc(s1)c1ccc(cc1)C(C)(C)C)(C)C,334.9,1.507883282,0.1697,-7.3046,0.05601,427.5317186396678,0.900410062,-0.6531,-6.9419,5.75305,-1.066,-8.388,0.05111,350.6042841649166,1.3568084492,377,32359.36569296281,377,32359.36569296281,NaN
POSLTPADMMXVPK-LQRCLESYSA-N,CC1CCC(=CC1)c1ccc(s1)CN[C@@H]1CCCC[C@H]1NCc1ccc(s1)C1=CCC(CC1)C,CC1C(=CC1)c1ccc(s1)CN[C@@H]1C[C@H]1NCc1ccc(s1)C1=C(CC1)C,271.8,0.54233633,0.781,-7.5841,0.60077,356.3788399123416,0.560418834,-0.1897,-7.2209,93.05432,-0.698,-8.449,1.45945,NaN,NaN,310.0,NaN,249.0,NaN,ethanol
LRUYZXAPGFWRLV-HTVVRFAVSA-N,OC[C@H]1O[C@H]([C@@H]([C@@H]1O)O)n1c(nc2c1nc(N)[nH]c2=O)c1ccco1,OC[C@H]1O[C@H]([C@@H]([C@@H]1O)O)n1c(nc2c1nc(N)[nH]c2=O)c1ccco1,263.4,1.002835027,0.8534,-7.8687,3.15484,385.1637104861872,0.537757813,-0.8371,-7.6258,34.15133,-0.853,-8.892,2.49735,278.25349658700895,0.7315307104,294.0,NaN,294.0,NaN,EtOAc
OQEYVXLCUDHMMT-UHFFFAOYSA-N,[O-][N+](=O)c1ccc(cc1)C=CC=Cc1ccc2c(c1)c(=C1SC=CS1)c1c(c2=C2SC=CS2)cccc1,[O-][N+](=O)c1ccc(cc1)C=CC=Cc1ccc2c(c1)c(=C1SC=CS1)c1c(c2=C2SC=CS2)cccc1,373.0,1.887986319,-0.9166,-6.8774,7.72039,421.4282746618071,0.015508817,-2.3985,-7.8001,167.52252,-1.498,-7.918,6.98471,399.60097015257503,1.4258569284,480,NaN,480,NaN,NaN
IWQFBPKZQWLEMG-UHFFFAOYSA-N,CCCCCCN1c2ccc(cc2Sc2c1cccc2)c1ccc(cc1)[Si](c1ccc(cc1)C=C(C(=O)O)C#N)(c1ccccc1)c1ccccc1,CN1c2ccc(cc2Sc2c1cccc2)c1ccc(cc1)[Si](c1ccc(cc1)C=C(C(=O)O)C#N)(c1ccccc1)c1ccccc1,304.5,0.160502445,-0.903,-7.4017,6.43152,313.80460239307433,0.351638191,-1.2579,-7.6174,208.86107,-1.458,-7.744,5.95519,NaN,NaN,NaN,NaN,NaN,NaN,NaN
HKPYFAQRKQNCAP-UHFFFAOYSA-N,CC(=O)OCCn1c(=O)c2ccc(c3c2c(c1=O)ccc3)Oc1ccccc1Cl,CC(=O)OCCn1c(=O)c2ccc(c3c2c(c1=O)ccc3)Oc1ccccc1Cl,324.6,0.347585922,-0.5247,-8.3356,4.01748,345.93805358678475,0.417096262,-1.3027,-8.2841,67.66628,-1.397,-9.174,4.99552,NaN,NaN,NaN,NaN,NaN,NaN,NaN
RQNCACWEFNGDAG-UHFFFAOYSA-N,CC1(C)c2cccnc2c2c1cccn2,CC1(C)c2cccnc2c2c1cccn2,268.4,0.012194886,0.3329,-8.6014,4.41623,319.0535213728864,0.454591019,-0.4272,-8.1693,58.17112,-0.88,-9.45,5.07157,NaN,NaN,309,NaN,309,NaN,NaN
CYUVBHKQXCERFM-UHFFFAOYSA-N,N#CC(=Cc1ccc(cc1)NN=C(c1ccc(cc1)Br)C)C#N,N#CC(=Cc1ccc(cc1)NN=C(c1ccc(cc1)Br)C)C#N,343.9,1.650134602,-0.9896,-7.9854,10.99930,354.44310579046214,0.681106489,-1.1675,-8.1019,405.43421,-1.604,-8.811,7.41844,NaN,NaN,574.0,NaN,313.0,NaN,NaN
JBDHQXXQFSFCOZ-UHFFFAOYSA-N,CC(=O)c1ccc(cc1)N=NC=C1N(C)c2c(C1(C)C)cccc2,CC(=O)c1ccc(cc1)N=NC=C1N(C)c2c(C1(C)C)cccc2,414.1,8.9041e-05,-0.4662,-7.3715,7.10733,486.97642735861615,0.029723182,-1.0831,-7.6782,108.60374,-0.908,-8.216,5.97798,NaN,NaN,461,NaN,461,NaN,THF
GAMKRXZJTVKAHA-UHFFFAOYSA-N,CN1c2ccccc2C(C21C=Nc1c(O2)c(C=Cc2cc3ccccc3c3c2OC(C=C3)(c2ccccc2)c2ccccc2)cc2c1cccc2)(C)C,CN1c2ccccc2C(C21C=Nc1c(O2)c(C=Cc2cc3ccccc3c3c2OC(C=C3)(c2ccccc2)c2ccccc2)cc2c1cccc2)(C)C,326.5,0.331257877,0.1882,-7.491,0.64751,356.891762825284,0.235964147,-0.3584,-7.2167,36.43339,-0.924,-8.404,1.8067,NaN,NaN,592,NaN,592,NaN,NaN
IGLZGQZKUVPOGP-UHFFFAOYSA-N,Brc1ccc(cc1)c1ccccc1c1nc2n(c1)ccc(c2)C=Cc1ccc(cc1)N(C)C,Brc1ccc(cc1)c1ccccc1c1nc2n(c1)ccc(c2)C=Cc1ccc(cc1)N(C)C,340.4,1.203272739,0.185,-7.0135,5.53355,370.1020847925482,0.467608405,-0.4967,-7.3586,298.38632,-0.784,-8.025,4.11292,NaN,NaN,415.0,NaN,346.0,NaN,Toluene
HJXUWHWULWRTAN-UHFFFAOYSA-N,CCCCCCCCC1(CCCCCCCC)c2cc(ccc2c2c1cccc2)c1nnn(c1)c1ccccc1,C1(C)c2cc(ccc2c2c1cccc2)c1nnn(c1)c1ccccc1,287.8,1.001800329,0.4079,-7.7734,4.42159,331.77468130988404,0.817735257,-0.4785,-7.5468,98.13580,-0.994,-8.58,3.68354,290.00115315706375,1.0748327501,300,NaN,300,NaN,NaN
SFIQYOQIQVZENR-UHFFFAOYSA-N,COc1ccc(cc1)C=CC=Cc1ccccc1,COc1ccc(cc1)C=CC=Cc1ccccc1,319.5,1.44722717,0.1808,-7.4176,1.62373,313.80460239307433,0.951462029,-0.1246,-7.6644,63.66908,-0.572,-8.463,1.55553,344.7644541717353,1.2700584116,340,NaN,340,NaN,NaN
IZCIUHJLJRQNEU-UHFFFAOYSA-N,Fc1ccc(cc1)n1c(N=Nc2ccc3c(c2)scn3)ccc1c1cccs1,Fc1ccc(cc1)n1c(N=Nc2ccc3c(c2)scn3)ccc1c1cccs1,434.7,0.003542203,-0.7428,-7.4831,2.91794,517.8955656036076,0.015958108,-1.4296,-7.3167,84.04384,-1.605,-8.638,2.99675,NaN,NaN,468.0,NaN,445.0,NaN,DMSO
SQCDWUCRJHRTLD-UHFFFAOYSA-N,COc1ccc(cc1)c1nn2c(c1)c(=O)[nH]c(c2)c1ccc(cc1)Cl,COc1ccc(cc1)c1nn2c(c1)c(=O)[nH]c(c2)c1ccc(cc1)Cl,295.8,1.070018942,0.2067,-7.6449,3.37291,383.25872768316435,0.503875502,-1.0484,-7.8649,235.31756,-1.236,-8.446,3.09605,306.7397155102411,0.9288028384,334,NaN,334,NaN,THF
HDZXZXXPAXPLMN-UHFFFAOYSA-N,CCCCCc1c(sc2c1sc(c2)C=NNc1ccccc1)c1nc2c(s1)cccc2,Cc1c(sc2c1sc(c2)C=NNc1ccccc1)c1nc2c(s1)cccc2,369.8,1.981420104,-0.4386,-7.2013,1.90869,466.2813027660913,0.948414838,-1.4573,-7.3956,105.97858,-1.548,-8.301,2.17964,392.6159568359968,1.6939586569,377,52000.0,377,52000.0,NaN
CZJUFAHSHVGEIF-UHFFFAOYSA-N,CCC(=O)N1C2CCCC1CN(C2)CC=C(c1cccc(c1)Cl)c1ccccc1,C(=O)N1C2C1CN(C2)CC=C(c1cccc(c1)Cl)c1ccccc1,248.1,0.130668788,0.7198,-8.3754,1.39948,305.8317671571378,0.008728018,-0.0173,-8.4137,147.21300,-0.398,-9.215,0.80448,NaN,NaN,NaN,NaN,NaN,NaN,NaN
ZSZFUDFOPOMEET-UHFFFAOYSA-N,N#CC(c1c(Cl)cc(cc1Cl)n1ncc(=O)[nH]c1=O)c1ccc(cc1)Cl,N#CC(c1c(Cl)cc(cc1Cl)n1ncc(=O)[nH]c1=O)c1ccc(cc1)Cl,272.5,0.006847065,-0.5264,-9.2225,3.28867,343.35142178206496,0.006571339,-2.0798,-9.0687,48.15698,-1.635,-9.924,2.68744,NaN,NaN,NaN,NaN,NaN,NaN,NaN
RPTRFSADOICSSK-UHFFFAOYSA-N,OC(=O)Cc1ccccc1F,OC(=O)Cc1ccccc1F,231.7,0.014297922,1.355,-9.2115,2.94643,281.8463250863916,0.004829347,-0.0518,-9.299,79.24951,-0.346,-9.95,2.23299,NaN,NaN,357,NaN,357,NaN,DMSO
NUIURNJTPRWVAP-UHFFFAOYSA-N,Nc1ccc(cc1C)c1ccc(c(c1)C)N,Nc1ccc(cc1C)c1ccc(c(c1)C)N,262.8,0.17503109,1.7854,-7.0528,0.38205,301.95859329153353,0.051394938,0.5364,-7.4298,20.43583,0.244,-7.888,0.24984,NaN,NaN,NaN,NaN,NaN,NaN,NaN
RVUQIDQFWHDMPK-UHFFFAOYSA-N,CCOC(=O)c1cc(c2c1ccccc2)C(=O)OCC,CCOC(=O)c1cc(c2c1ccccc2)C(=O)OCC,441.7,0.011244056,-0.6848,-7.99,0.36577,477.0457807060548,0.025431663,-1.4192,-8.0662,22.42693,-1.759,-8.936,1.97046,NaN,NaN,505,NaN,505,NaN,NaN
MWYDRKZSWCDYMW-UHFFFAOYSA-N,O=c1ncn(c2c1cccn2)C1CC1,O=c1ncn(c2c1cccn2)C1CC1,292.0,0.003811306,0.065,-8.9338,6.04685,344.9755103102495,0.001512489,-0.8058,-8.9476,66.50340,-0.928,-9.457,5.64132,NaN,NaN,221,NaN,221,NaN,NaN
FEHNQAUYPFZIKJ-UHFFFAOYSA-N,c1ccc(cc1)c1ccc(s1)c1ccc(s1)c1ccccc1,c1ccc(cc1)c1ccc(s1)c1ccc(s1)c1ccccc1,327.6,1.290276813,0.0752,-7.4507,0.74066,382.5492082860341,0.715819475,-0.4336,-7.2784,20.32856,-1.005,-8.765,0.34139,348.84835263284504,1.1015119617,373,34673.685045253165,373,34673.685045253165,NaN
DTQJMAHDNUWGFH-AWEZNQCLSA-N,c1ccc(cc1)[C@@H]1COC(=N1)c1ccccc1,c1ccc(cc1)[C@@H]1COC(=N1)c1ccccc1,244.3,0.189380777,0.7147,-8.8332,1.07902,275.45922773939935,0.007734045,-0.329,-8.5542,26.74026,-0.527,-9.533,1.37517,NaN,NaN,271.3,NaN,271.3,NaN,NaN
HZGBQGJFXHFYAD-UHFFFAOYSA-N,O=C1N(C)C(=O)C(=C1c1ccc2c(c1)[nH]c1c2cccc1)c1c[nH]c2c1cccc2,O=C1N(C)C(=O)C(=C1c1ccc2c(c1)[nH]c1c2cccc1)c1c[nH]c2c1cccc2,378.8,0.29892509,-0.5598,-7.6209,4.88547,465.0570082727069,0.30931153,-1.6435,-7.5856,133.17964,-1.451,-8.435,2.53793,NaN,NaN,448,NaN,448,NaN,NaN
CBGWUJVSAZJKNL-UHFFFAOYSA-N,CCc1ccc(cc1)n1c(nc(c1c1ccccc1)c1ccccc1)c1cccc(c1)[N+](=O)[O-],CCc1ccc(cc1)n1c(nc(c1c1ccccc1)c1ccccc1)c1cccc(c1)[N+](=O)[O-],316.3,0.000262373,-0.4294,-7.7282,3.35297,499.53343434932975,0.018028264,-2.5502,-7.3746,176.66552,-1.232,-8.608,3.87115,NaN,NaN,356,NaN,356,NaN,NaN
WOBFSFFHGNIEIU-UHFFFAOYSA-N,OCCn1c(=O)c2ccc(c3c2c(c1=O)ccc3)Oc1ccc(cc1)F,OCCn1c(=O)c2ccc(c3c2c(c1=O)ccc3)Oc1ccc(cc1)F,323.7,0.356007994,-0.8417,-8.6243,6.47849,344.9755103102495,0.416452709,-1.7793,-8.7782,52.93781,-1.761,-9.503,6.78102,NaN,NaN,NaN,NaN,NaN,NaN,NaN
CQYOUWQAJVEXLS-UHFFFAOYSA-N,COc1ccc2c(c1)C(c1ccccc1)(c1ccccc1)c1c(N2)ccc(c1)OC,COc1ccc2c(c1)C(c1ccccc1)(c1ccccc1)c1c(N2)ccc(c1)OC,289.9,0.14571016,1.2747,-6.9712,1.14577,326.0168246266202,0.00353291,0.1304,-7.3666,48.05569,0.026,-7.547,1.54653,NaN,NaN,256,NaN,256,NaN,NaN
QPUMQTYRURTSTP-UHFFFAOYSA-N,Cc1nn2c(N=Nc3ccccc3)c(nc2c2c1nn(c2c1ccccc1)c1ccccc1)c1ccccc1,Cc1nn2c(N=Nc3ccccc3)c(nc2c2c1nn(c2c1ccccc1)c1ccccc1)c1ccccc1,448.1,0.001482583,-0.4832,-7.4686,5.12105,526.9196702316348,0.000932113,-1.2047,-7.1189,60.32131,-1.361,-8.393,5.09381,NaN,NaN,408.0,NaN,249.0,NaN,NaN
WGCSCHUWGAZTQP-UHFFFAOYSA-N,CCCCCCC1=C(I)c2ccccc2S(=O)(=O)N1CC,C1=C(I)c2ccccc2S(=O)(=O)N1CC,295.4,0.078981883,0.2275,-8.2736,2.96193,NaN,NaN,NaN,Nan,NaN,-0.839,-8.428,2.19303,NaN,NaN,NaN,NaN,NaN,NaN,NaN
RWXNJPBIVZZSQA-UHFFFAOYSA-N,CC(=O)N(c1ccc(cc1)C=Cc1ccccc1)O,CC(=O)N(c1ccc(cc1)C=Cc1ccccc1)O,304.9,1.248659793,0.184,-7.6424,3.28154,303.80837639182465,0.022549593,0.0359,-7.8487,142.57483,-0.46,-8.743,2.835,311.7452239300984,1.2188765868,NaN,NaN,NaN,NaN,NaN
WDAIMFJRSHDNRX-UHFFFAOYSA-N,COc1cc(ccc1OC)C=c1oc(=Cc2ccccc2)c2c1cccc2,COc1cc(ccc1OC)C=c1oc(=Cc2ccccc2)c2c1cccc2,353.3,0.790842108,-0.1445,-7.1605,2.78440,362.1033831936439,0.353595645,-0.4866,-7.3492,63.08712,-1.089,-7.992,3.21295,NaN,NaN,380,32700.0,380,32700.0,NaN
FCZVWICVFFQUNR-UHFFFAOYSA-N,O=Cc1[n+]([O-])c2ccccc2[n+](c1c1ccccc1)[O-],O=Cc1[n+]([O-])c2ccccc2[n+](c1c1ccccc1)[O-],394.1,0.166564929,-1.28,-8.0636,3.51445,488.51142003744553,0.003941189,-2.8363,-8.773,49.54109,-1.824,-8.661,4.36139,NaN,NaN,416,NaN,416,NaN,NaN
ONOAPNGTBHTJRO-UHFFFAOYSA-N,Cc1ccc(c(c1)N=Cc1ccccn1)C,Cc1ccc(c(c1)N=Cc1ccccn1)C,305.3,0.301063084,0.0098,-8.1975,1.46656,359.89607664877695,0.011531964,-0.5516,-8.0581,52.37413,-0.785,-8.869,1.11592,NaN,NaN,339.0,NaN,241.0,NaN,NaN
CTYLRMOPQZXIOH-UHFFFAOYSA-N,Cc1ccc(cc1)CNC1=C(Br)C(=O)OC1OCc1ccccc1,Cc1ccc(cc1)CNC1=C(Br)C(=O)OC1OCc1ccccc1,234.5,0.211762533,0.9898,-8.2861,7.87211,323.2121960518865,5.2107e-05,-0.6665,-8.6151,431.23124,-0.503,-8.869,8.16157,NaN,NaN,276,NaN,276,NaN,NaN
RVYBDSRVQMVQPH-UHFFFAOYSA-N,CCC(=O)N1CC2CCCC(C1)N2CCC(c1ccccc1)c1ccccc1,C(=O)N1CC2C(C1)N2C(c1ccccc1)c1ccccc1,232.4,0.019020667,1.3135,-8.9077,4.85397,274.90953083260234,0.003862384,0.374,-8.3529,99.48083,-0.014,-9.255,4.80412,NaN,NaN,NaN,NaN,NaN,NaN,NaN
DQPLRTLLLDIYAV-UHFFFAOYSA-N,Nc1ncc2c(c1c1ccccc1)cccc2,Nc1ncc2c(c1c1ccccc1)cccc2,321.2,0.16273266,0.4975,-7.5383,1.61076,358.1288226617668,0.16375741,-0.3007,-7.4714,41.94534,-0.65,-8.28,1.23226,NaN,NaN,436.0,NaN,0.0,NaN,NaN
GVZYWWUFXAVJGV-UHFFFAOYSA-N,CCCCC(Cn1c2cc(sc2c2c1cc(s2)C=C(C(=O)O)C#N)c1ccc(cc1)N(c1ccccc1)c1ccccc1)CC,C(Cn1c2cc(sc2c2c1cc(s2)C=C(C(=O)O)C#N)c1ccc(cc1)N(c1ccccc1)c1ccccc1)CC,389.9,2.258391482,-0.9958,-7.1459,7.69365,546.908682865036,1.030195265,-1.6896,-7.05,551.08744,-1.762,-8.124,5.29592,NaN,NaN,610.0,NaN,427.0,NaN,chloroform
BRDIONULIJLWHB-UHFFFAOYSA-N,CN(CCNc1c2ccccc2nc2c1cc1c3c2cccc3c(=O)n(c1=O)CCN(C)C)C,CN(CCNc1c2ccccc2nc2c1cc1c3c2cccc3c(=O)n(c1=O)CCN(C)C)C,363.2,0.334423593,-0.7391,-7.8077,5.03966,384.32795537973857,0.336199478,-1.468,-7.9577,86.72933,-1.391,-8.376,8.01219,NaN,NaN,544.0,NaN,462.0,NaN,NaN
DSAVKPAXCMYPJW-UHFFFAOYSA-N,Clc1ccc(cc1)C=Cc1ccc(cc1)c1nc(c(n1c1ccccc1)c1ccccc1)c1ccccc1,Clc1ccc(cc1)C=Cc1ccc(cc1)c1nc(c(n1c1ccccc1)c1ccccc1)c1ccccc1,326.1,1.873292129,-0.1291,-7.4017,4.55726,360.9438090407676,0.54163986,-0.5414,-7.1879,393.08562,-0.892,-8.468,4.99073,332.98649892367047,1.7250924405,340,NaN,340,NaN,NaN
LSGSDJUDTPCNBZ-UHFFFAOYSA-N,Cc1ccc(cc1)C=CC(=O)c1nnn(c1C)c1ccnc2c1ccc(c2)Cl,Cc1ccc(cc1)C=CC(=O)c1nnn(c1C)c1ccnc2c1ccc(c2)Cl,318.8,5.2953e-05,-0.5552,-8.4831,2.04254,375.48212721230664,0.008875723,-1.1431,-8.4496,345.83980,-1.641,-9.272,2.66665,NaN,NaN,234,NaN,234,NaN,methanol
KJWXIUFUBKUYCQ-UHFFFAOYSA-N,CCOC(=O)C1=C(NC(=O)C1=Cc1ccc(s1)c1cccs1)c1ccccc1,CCOC(=O)C1=C(NC(=O)C1=Cc1ccc(s1)c1cccs1)c1ccccc1,381.2,1.268365255,-0.7417,-7.5438,2.55488,402.9385713536031,0.692280828,-1.0798,-7.601,153.29298,-1.393,-8.827,3.2969,NaN,NaN,710.0,52700,469.0,52700,MTHF
MDSVGJAUFNXYRR-TUNPWDSISA-N,CN[C@@H](C(=O)N1CCC[C@H]1C(=O)NCC1CC[C@H](CC1)N)Cc1ccccc1,CN[C@@H](C(=O)N1CCC[C@H]1C(=O)NCC1CC[C@H](CC1)N)Cc1ccccc1,234.1,0.000979505,1.3463,-8.8747,3.77493,285.4148213754688,0.005506512,0.2881,-8.972,76.32089,-0.042,-9.176,4.06334,NaN,NaN,NaN,NaN,NaN,NaN,NaN
SLGBZMMZGDRARJ-UHFFFAOYSA-N,c1ccc2c(c1)c1ccccc1c1c2cccc1,c1ccc2c(c1)c1ccccc1c1c2cccc1,296.0,1.0588e-05,0.6475,-8.1773,0.00806,332.4864532193716,2.15e-07,-0.1425,-7.8971,0.01865,-0.652,-8.825,0.00092,NaN,NaN,280,NaN,280,NaN,NaN
UDMIZUGKURJFRV-UHFFFAOYSA-N,CCN(c1ccc(c(c1)O)c1[nH]c2c(n1)ccc(c2)n1nc2c(n1)c1ccccc1cc2)CC,CCN(c1ccc(c(c1)O)c1[nH]c2c(n1)ccc(c2)n1nc2c(n1)c1ccccc1cc2)CC,325.3,1.790008187,0.0314,-7.1611,5.14997,422.28950410593893,1.365604518,-1.0037,-7.1707,140.43772,-1.112,-8.104,6.42659,337.07844328540983,1.7302350945,385.0,NaN,372.0,NaN,DMSO
AXTGGJGTLOWIGP-UHFFFAOYSA-N,O=C1C=C(C)C(=O)C2(N1)NC(=O)c1c(N2C2CC2)nccc1,O=C1C=C(C)C(=O)C2(N1)NC(=O)c1c(N2C2CC2)nccc1,365.9,0.004668397,-0.903,-8.4217,2.48054,392.9768570697422,0.000586116,-1.7448,-8.6735,64.94017,-1.497,-9.156,2.94605,NaN,NaN,210,NaN,210,NaN,NaN
AXKUZTKSAAHGLW-UHFFFAOYSA-N,CCCC(=O)OCc1cc(=O)oc2c1cc1nc(oc1c2)c1ccccc1,C(=O)OCc1cc(=O)oc2c1cc1nc(oc1c2)c1ccccc1,296.5,0.782110764,-0.4115,-8.4007,6.40064,352.127800072433,0.581835168,-1.0909,-8.1785,166.16006,-1.506,-9.237,3.36762,NaN,NaN,339,7244.359600749898,339,7244.359600749898,NaN
ROGCYNMQMVZCEB-UHFFFAOYSA-N,[O-][N+](=O)c1cccc(c1)C=NNC(=Cc1ccc2c(n1)cccc2)c1ccccc1,[O-][N+](=O)c1cccc(c1)C=NNC(=Cc1ccc2c(n1)cccc2)c1ccccc1,353.3,1.102230239,-0.4234,-7.4318,5.65407,432.6036231873819,0.026317329,-2.5363,-7.5312,191.77849,-1.322,-8.439,5.87247,379.55119393020095,0.8532799091,425,NaN,425,NaN,ethanol