inchikey,smi_pre,smi_post,lambda_sTDA (nm),f1_sTDA,lumo_dft,homo_dft,dmom_dft (D),lambda_z (nm),f1_z,lumo_z,homo_z,dmom_z (D),lumo_mopac,homo_mopac,dmom_mopac (D),lambda_tddft (nm),f1_tddft,lambda_exp_max (nm),epsilon_exp_max ,lambda_exp_min (nm),epsilon_exp_min ,solvent
RMIXUGVFQGLGFS-UHFFFAOYSA-N,BrC1=C(Nc2cccc3c2cccc3)C(OC1=O)OCc1ccccc1,BrC1=C(Nc2cccc3c2cccc3)C(OC1=O)OCc1ccccc1,291.1,0.191545943,0.0345,-8.3208,7.55412,327.3078099406116,9.3598e-05,-0.6007,-8.3235,481.75972,-1.131,-8.826,8.26493,NaN,NaN,294,NaN,294,NaN,NaN
DDFUBSSLRMHCOH-UHFFFAOYSA-N,COc1ccc(cc1)N=Nc1nc2c(s1)cc(cc2)[N+](=O)[O-],COc1ccc(cc1)N=Nc1nc2c(s1)cc(cc2)[N+](=O)[O-],468.0,0.000141774,-1.3995,-8.5182,8.19243,519.6320134346339,0.004806282,-2.3962,-8.8681,204.58364,-1.948,-9.425,8.49559,NaN,NaN,407.0,NaN,399.0,NaN,Methanol
DCQRPGLLNBYMFK-UHFFFAOYSA-N,CCOC(=O)C1=C(NC(=O)C1=NNc1ccccc1O)c1ccccc1,CCOC(=O)C1=C(NC(=O)C1=NNc1ccccc1O)c1ccccc1,367.1,1.101406953,-0.6453,-7.4491,2.44874,440.5977199911288,0.536620005,-1.668,-7.8147,39.74240,-1.38,-8.347,2.00524,410.78852630455054,0.7630041549,460.0,NaN,454.0,NaN,THF
IBCIYZMMAXFEHC-UHFFFAOYSA-N,CCN(c1cc(NC(=O)C)c(cc1OC)N=Nc1ccc2c(c1[N+](=O)[O-])c(=O)[nH][nH]c2=O)CC,CCN(c1cc(NC(=O)C)c(cc1OC)N=Nc1ccc2c(c1[N+](=O)[O-])c(=O)[nH][nH]c2=O)CC,437.9,0.025336181,-1.2309,-7.3418,3.79990,563.8208203979249,0.005944439,-2.3607,-7.6454,319.86426,-1.825,-7.927,4.4458,NaN,NaN,550.0,9993,538.0,16702,NaN
XPVBLJIHHYLHOE-UHFFFAOYSA-N,O=Cc1cc(N=Nc2ccccc2)ccc1O,O=Cc1cc(N=Nc2ccccc2)ccc1O,430.1,1.347e-06,-0.6089,-8.3886,2.72623,522.0387301284364,0.005670107,-1.4401,-8.4606,121.94393,-1.309,-9.174,2.74042,NaN,NaN,334,NaN,334,NaN,NaN
PGGSVLZGQYAELV-UHFFFAOYSA-N,Oc1ccc(c(c1)O)c1[nH]c2c(n1)c1c(=O)[nH][nH]c(=O)c1cc2,Oc1ccc(c(c1)O)c1[nH]c2c(n1)c1c(=O)[nH][nH]c(=O)c1cc2,303.1,0.734345054,-0.2112,-7.986,2.69187,371.87821957259644,0.550591774,-1.3291,-8.2013,78.34723,-1.531,-8.966,3.45232,NaN,NaN,515.0,NaN,356.0,NaN,NaN
DNFVRRRDDLDFAX-WCQYABFASA-N,CCC[C@H]([C@@H](c1ccc(cc1)Br)C[N+](=O)[O-])C=O,CCC[C@H]([C@@H](c1ccc(cc1)Br)C[N+](=O)[O-])C=O,293.7,8.3811e-05,0.4781,-9.1198,5.46750,410.81576675117185,2.5526e-05,-2.4553,-9.19,313.26923,-0.655,-9.753,4.98825,NaN,NaN,NaN,NaN,NaN,NaN,NaN
QIVHQZNEFYWQJH-UHFFFAOYSA-N,Cc1nn(c(c1)C)c1nc2c(s1)cccc2,Cc1nn(c(c1)C)c1nc2c(s1)cccc2,265.1,0.449089847,0.5921,-8.2943,1.06371,322.2880124915614,0.547641968,-0.4452,-8.0188,57.34851,-1.04,-8.879,0.62276,NaN,NaN,287,NaN,287,NaN,DMSO
UNJPLNCOHUFZES-HKBQPEDESA-N,O=C(c1ccc2c(c1)ncn2C(=O)OC(C)(C)C)NC[C@@](C(=O)OCC1c2ccccc2c2c1cccc2)(C(=O)O)N,O=C(c1ccc2c(c1)ncn2C(=O)OC(C)(C)C)NC[C@@](C(=O)OCC1c2ccccc2c2c1cccc2)(C(=O)O)N,265.8,0.227258573,0.6257,-8.3866,5.55654,304.7043460444917,0.07382937,-0.8028,-7.8232,160.44851,-0.819,-8.887,5.68456,NaN,NaN,NaN,NaN,NaN,NaN,NaN
XSQRJQKQBLFCRT-UHFFFAOYSA-N,c1ccc2c(c1)c1ccc(cc1C2)C#Cc1ccc(cc1)N=Nc1ccc(cc1)C#Cc1ccc2c(c1)Cc1c2cccc1,c1ccc2c(c1)c1ccc(cc1C2)C#Cc1ccc(cc1)N=Nc1ccc(cc1)C#Cc1ccc2c(c1)Cc1c2cccc1,447.1,0.024286344,-0.9529,-7.5927,0.93825,524.2460820528696,0.004858286,-1.2526,-7.5571,16.02863,-1.488,-8.609,0.33672,NaN,NaN,375,NaN,375,NaN,NaN
KPPCVKKRNKGPCN-UHFFFAOYSA-N,Oc1cccc2c1nc(OCc1ccccc1COc1ccc3c(n1)c(O)ccc3)cc2,Oc1cccc2c1nc(OCc1ccccc1COc1ccc3c(n1)c(O)ccc3)cc2,304.0,0.004897725,0.3719,-7.7895,1.50355,336.09161942397304,0.023361151,-0.5985,-7.9234,1.68091,-0.83,-8.752,2.86919,NaN,NaN,385,NaN,385,NaN,NaN
LDTHYUBREKORSS-UHFFFAOYSA-N,CN1c2ccc(cc2Sc2c1cccc2)N=Cc1cccc2c1Sc1ccccc1N2C,CN1c2ccc(cc2Sc2c1cccc2)N=Cc1cccc2c1Sc1ccccc1N2C,329.2,0.510041364,0.1246,-7.1799,1.87316,333.7394304320422,0.242513953,-0.15,-7.4939,47.61718,-0.623,-7.67,2.20752,NaN,NaN,411.0,6790,294.0,1712,DCM
MMGCXRBVZYOPTI-UHFFFAOYSA-N,N#Cc1cc(c2ccc(cc2)N(c2ccccc2)c2ccccc2)c(nc1N)c1cccs1,N#Cc1cc(c2ccc(cc2)N(c2ccccc2)c2ccccc2)c(nc1N)c1cccs1,306.7,0.51760172,-0.1935,-7.4111,4.08088,360.8387613664251,0.320620129,-0.7386,-7.3035,205.88238,-1.15,-8.018,3.38485,NaN,NaN,422.0,30027,301.0,30027,NaN
TYGWINLVLIQARY-UHFFFAOYSA-N,c1ccc(cc1)Oc1nc(Oc2ccccc2)nc(n1)c1ccc2c(c1)c1ccccc1n2c1ccccc1,c1ccc(cc1)Oc1nc(Oc2ccccc2)nc(n1)c1ccc2c(c1)c1ccccc1n2c1ccccc1,292.0,0.019710088,0.2864,-7.8056,5.57356,330.008513190055,0.017716981,-0.6143,-7.8857,199.25372,-0.973,-8.434,5.9281,NaN,NaN,339.0,NaN,300.0,NaN,NaN
XTVWYPQUTLIEQF-UHFFFAOYSA-N,Fc1c(F)c(NCCNc2c(F)c(F)c3c(c2F)nc2c(n3)c(F)c(c(c2F)F)F)c(c2c1nc1c(n2)c(F)c(c(c1F)F)F)F,Fc1c(F)c(NCCNc2c(F)c(F)c3c(c2F)nc2c(n3)c(F)c(c(c2F)F)F)c(c2c1nc1c(n2)c(F)c(c(c1F)F)F)F,396.4,0.121583226,-1.5956,-8.3134,7.67752,437.79731075389714,0.125498032,-2.9328,-8.9455,237.78371,-2.712,-9.333,1.79784,NaN,NaN,465,NaN,465,NaN,NaN
YVACEIQVMLTSOM-UHFFFAOYSA-N,CCCCCCCCC1(CCCCCCCC)c2cc3nc([nH]c3cc2c2c1cccc2)c1ccccc1,C1(C)c2cc3nc([nH]c3cc2c2c1cccc2)c1ccccc1,303.1,1.208516609,0.2508,-7.5055,2.60342,371.21017486677744,0.910440015,-0.5544,-7.229,44.64979,-0.882,-8.463,2.67834,306.8763749548029,1.1512569853,356.0,NaN,340.0,NaN,DMSO
WTYWGHQOJRROSM-UHFFFAOYSA-N,Brc1ccc(cc1)C=C1N=C(N(C1=O)Cc1ccccc1)C,Brc1ccc(cc1)C=C1N=C(N(C1=O)Cc1ccccc1)C,319.7,1.048449767,-0.5085,-8.0673,4.32073,331.154376083076,0.719603863,-1.0481,-8.3776,490.92926,-1.241,-9.0,4.42612,NaN,NaN,359.0,NaN,359.0,NaN,NaN
WJLPXBWZOQTACP-UHFFFAOYSA-N,CSc1nc(cc(n1)c1ccc(cc1)n1c2ccccc2c2c1cccc2)c1ccc(cc1)n1c2ccccc2c2c1cccc2,CSc1nc(cc(n1)c1ccc(cc1)n1c2ccccc2c2c1cccc2)c1ccc(cc1)n1c2ccccc2c2c1cccc2,302.7,1.179907531,-0.3626,-7.747,1.63933,328.60906017891244,0.967048597,-0.5997,-7.7186,196.00901,-1.103,-8.299,1.9442,317.4117227138052,1.0851395023,291,NaN,291,NaN,toluene
PGERTGWKXFAEFR-UHFFFAOYSA-N,O=C1C=CC2=C3c4cc(O)c(cc4CC3(COC2=C1)O)O,O=C1C=CC2=C3c4cc(O)c(cc4CC3(COC2=C1)O)O,352.4,0.000655763,-0.9436,-7.9042,6.11616,387.5717361847567,0.001128932,-1.7506,-8.1745,30.77861,-1.816,-8.898,5.07309,NaN,NaN,445.0,NaN,244.0,NaN,NaN
PSTLRDHPRAYDFM-UHFFFAOYSA-N,ClC1=C(N(Cc2ccccc2)Cc2ccccc2)C(=O)C(=C(C1=O)N(Cc1ccccc1)Cc1ccccc1)Cl,ClC1=C(N(Cc2ccccc2)Cc2ccccc2)C(=O)C(=C(C1=O)N(Cc1ccccc1)Cc1ccccc1)Cl,474.9,0.010311231,-1.4534,-8.4562,1.33102,526.6958300998456,0.019099875,-2.5645,-8.3325,97.87837,-1.318,-8.617,5.11288,NaN,NaN,479.0,NaN,452.0,NaN,Chloroform
DKZCREJLHJKGGX-UHFFFAOYSA-N,CCN(c1ccc(cc1)C=C(c1ccc(s1)c1nc2c([nH]1)cc(cc2)C(=O)O)C#N)CC,CCN(c1ccc(cc1)C=C(c1ccc(s1)c1nc2c([nH]1)cc(cc2)C(=O)O)C#N)CC,375.6,2.303796487,-0.6656,-7.2835,10.87653,435.33777530022354,1.169289721,-1.4489,-7.5532,445.65702,-1.525,-8.209,10.19464,399.54946024697705,1.921453658,460,41962,460,41962,DMF
QXFSECIYIYVIPQ-UHFFFAOYSA-N,COc1ccc(cc1)c1nc(c(s1)c1ccccc1O)O,COc1ccc(cc1)c1nc(c(s1)c1ccccc1O)O,317.1,0.983419899,0.153,-7.5799,4.29501,386.3639713477833,0.562079284,-0.7996,-7.5339,38.46626,-1.175,-8.601,4.57054,332.05900961283265,0.822732205,357.0,NaN,352.0,NaN,Dioxane
IKYBBIAQMWYCOQ-UHFFFAOYSA-N,O=c1oc(cc2c1scc2)Cn1ccc2c1cccc2,O=c1oc(cc2c1scc2)Cn1ccc2c1cccc2,272.7,0.306632083,0.102,-8.0976,3.65261,363.0576820073314,0.139665435,-1.2452,-7.9432,179.92741,-1.302,-8.67,2.54662,NaN,NaN,NaN,NaN,NaN,NaN,NaN
GJOWRQDPCAAASC-UHFFFAOYSA-N,c1ccc(cc1)c1ccc(cc1)c1ccc(o1)c1ccc(o1)c1ccc(cc1)c1ccccc1,c1ccc(cc1)c1ccc(cc1)c1ccc(o1)c1ccc(o1)c1ccc(cc1)c1ccccc1,355.8,2.276862046,0.0625,-7.0236,0.00554,463.31912707587315,1.039000132,-0.7493,-6.7795,0.18735,-0.969,-8.215,0.0425,368.124088507243,1.991236448,386,NaN,386,NaN,NaN
XIURVHNZVLADCM-IUODEOHRSA-N,CC(=O)OCC1=C(C(=O)O)N2[C@H](SC1)[C@@H](C2=O)NC(=O)Cc1cccs1,CC(=O)OCC1=C(C(=O)O)N2[C@H](SC1)[C@@H](C2=O)NC(=O)Cc1cccs1,253.2,0.121545878,0.2009,-8.9823,2.39907,299.6234857552046,0.014099781,-0.1846,-8.6349,75.99393,-0.742,-9.191,4.35724,NaN,NaN,NaN,NaN,NaN,NaN,NaN
CJNZBMZIRHFQGV-UHFFFAOYSA-N,ON=C1CCC(=C1c1cc(sc1C)C)c1cc(sc1C)C,ON=C1CCC(=C1c1cc(sc1C)C)c1cc(sc1C)C,271.9,0.329708902,0.8633,-7.6176,1.22490,334.73055725027984,0.122789387,-0.2558,-7.5669,62.13766,-0.379,-8.393,1.96063,NaN,NaN,287,NaN,287,NaN,NaN
APJYDQYYACXCRM-UHFFFAOYSA-N,NCCc1c[nH]c2c1cccc2,NCCc1c[nH]c2c1cccc2,267.0,0.084169623,1.4252,-7.7333,2.64843,303.6595601408368,0.00762671,0.335,-7.6865,15.04711,-0.149,-8.516,2.80579,NaN,NaN,218,NaN,218,NaN,NaN
OWQWNACYDVYWAB-UHFFFAOYSA-N,N#CC(=Cc1ccc(s1)C=Cc1ccc(s1)c1ccc2c(c1)c1ccccc1n2c1ccc2c(c1)C(C)(C)c1c2cccc1)C(=O)O,N#CC(=Cc1ccc(s1)C=Cc1ccc(s1)c1ccc2c(c1)c1ccccc1n2c1ccc2c(c1)C(C)(C)c1c2cccc1)C(=O)O,407.5,2.627387281,-1.2123,-7.3076,10.75651,506.2645912842126,1.431330151,-1.9174,-7.3356,894.85953,-1.964,-8.244,6.86741,448.3895447153429,2.2112410936,451.0,NaN,430.0,NaN,NaN
FQYKYXVVLKBGDQ-UHFFFAOYSA-N,Clc1ccc(cc1)c1csc(n1)N=Nc1ccc(c2c1cccn2)O,Clc1ccc(cc1)c1csc(n1)N=Nc1ccc(c2c1cccn2)O,457.3,0.001837809,-1.0929,-7.8622,0.52892,540.000864135469,0.015625535,-1.8314,-8.0841,145.13747,-1.81,-8.88,2.7867,NaN,NaN,569.0,NaN,456.0,NaN,DMSO
DAHHEUQBMDBSLO-UHFFFAOYSA-N,BrCC(c1ccccc1)O,BrCC(c1ccccc1)O,231.5,0.000713877,1.3327,-9.4166,2.09036,268.2479411629244,0.004081224,0.4808,-9.0317,174.90862,-0.166,-9.967,1.79882,NaN,NaN,NaN,NaN,NaN,NaN,NaN
OLPFPCWOLHXPKV-UHFFFAOYSA-N,CCCCCCn1c2ccc(cc2c2c1cccc2)C(C#N)C#N,Cn1c2ccc(cc2c2c1cccc2)C(C#N)C#N,293.5,0.042065234,0.3318,-8.1702,7.09207,327.1350881411706,0.025567892,-0.306,-8.0918,97.68707,-0.72,-8.598,5.76397,NaN,NaN,NaN,NaN,NaN,NaN,NaN
FBOZXECLQNJBKD-UHFFFAOYSA-N,OC(=O)CCC(C(=O)O)NC(=O)c1ccc(cc1)N(Cc1cnc2c(n1)c(N)nc(n2)N)C,OC(=O)CCC(C(=O)O)NC(=O)c1ccc(cc1)N(Cc1cnc2c(n1)c(N)nc(n2)N)C,337.1,0.00624484,-0.177,-7.8976,10.45472,382.5492082860341,0.002563077,-1.0421,-8.057,108.84172,-1.158,-8.688,10.36077,NaN,NaN,NaN,NaN,NaN,NaN,NaN
MAFFUSLVCJPADH-UHFFFAOYSA-N,c1ccc(cc1)C1CCC(=CC1)c1ccc(s1)c1cccs1,c1ccc(cc1)C1CCC(=CC1)c1ccc(s1)c1cccs1,313.5,0.909447062,0.2919,-7.4936,0.51287,342.30866484125806,0.48475427,-0.1732,-7.5956,286.09298,-0.755,-8.959,0.59413,334.0991458077053,0.7530267721,347.0,NaN,341.0,NaN,Hexane
SAXRBOUTDYUITJ-HOTGVXAUSA-N,O=C([C@@H]1O[C@H]1c1ccccc1C)c1ccccc1,O=C([C@@H]1O[C@H]1c1ccccc1C)c1ccccc1,301.4,0.002348868,0.0653,-8.9513,1.44828,356.48130651381155,9.961e-06,-0.736,-8.6483,31.08445,-0.721,-9.519,1.2066,NaN,NaN,332.0,2790,204.0,14020,NaN
MTJOTKZPMGMGFT-UHFFFAOYSA-N,Brc1ccc2n(c1)c(Cc1ccccc1)c(n2)c1ccccc1O,Brc1ccc2n(c1)c(Cc1ccccc1)c(n2)c1ccccc1O,304.6,0.102721818,0.6233,-7.9542,2.81379,387.2086146330533,0.217789177,-0.512,-7.3959,423.76821,-0.783,-8.696,2.92683,NaN,NaN,NaN,NaN,NaN,NaN,NaN
KOGRYLHAMYWWOE-UHFFFAOYSA-N,Brc1ccc2c(c1)nc1c(n2)[nH]c2c([nH]1)cccc2,Brc1ccc2c(c1)nc1c(n2)[nH]c2c([nH]1)cccc2,331.4,0.691636001,0.2592,-7.2676,4.94131,382.90363930050546,0.514072508,-0.8515,-7.6332,403.11535,-1.126,-8.045,4.75919,NaN,NaN,418.0,NaN,416.0,NaN,NaN
OQANPHBRHBJGNZ-UHFFFAOYSA-N,OC(=O)C1=CC(=NNc2ccc(cc2)S(=O)(=O)Nc2ccccn2)C=CC1=O,OC(=O)C1=CC(=NNc2ccc(cc2)S(=O)(=O)Nc2ccccn2)C=CC1=O,373.6,0.450378554,-1.8234,-8.7473,6.37216,444.2285861895509,0.309205208,-2.8328,-8.3599,109.46281,-2.547,-9.321,2.42407,NaN,NaN,NaN,NaN,NaN,NaN,NaN
MSTNYGQPCMXVAQ-UHFFFAOYSA-N,OC(=O)CCC(C(=O)O)NC(=O)c1ccc(cc1)NCC1CNc2c(N1)c(=O)nc([nH]2)N,OC(=O)CCC(C(=O)O)NC(=O)c1ccc(cc1)NCC1CNc2c(N1)c(=O)nc([nH]2)N,267.9,0.156769239,0.7838,-7.647,17.52385,324.396123509952,0.052120814,-0.5693,-8.3298,162.03247,-0.363,-8.415,9.3031,NaN,NaN,NaN,NaN,NaN,NaN,NaN
FDIPDXKIDBEXSX-UHFFFAOYSA-N,CCCCCCOc1cc2c(cc1OCCCCCC)[nH]c1c2scc1,COc1cc2c(cc1OC)[nH]c1c2scc1,276.8,0.223886384,0.9911,-7.6052,2.44551,364.7666913960096,0.407697835,-0.2182,-7.248,68.64836,-0.523,-7.978,0.65659,NaN,NaN,259,NaN,259,NaN,DMSO
KCOULPRVOZDQEL-IFNZWHIZSA-N,O[C@H]1[C@H](O)C[C@@H](O[C@@H]1C)c1ccc2c(c1O)C(=O)C1=C(C2=O)[C@@]2(O)C(=O)C[C@](C[C@]2(C=C1)O)(C)O,O[C@H]1[C@H](O)C[C@@H](O[C@@H]1C)c1ccc2c(c1O)C(=O)C1=C(C2=O)[C@@]2(O)C(=O)C[C@](C[C@]2(C=C1)O)(C)O,384.3,0.028694148,-1.7991,-8.9912,0.76601,434.2703972171757,0.050177178,-2.33,-8.9142,14.98219,-2.211,-9.77,2.9904,NaN,NaN,NaN,NaN,NaN,NaN,NaN
KFMKOESIFSSTMD-UHFFFAOYSA-N,FC(c1cccc(c1)C1(COC2C(=C1)c1ccccc1C=C2)c1cccc(c1)C(F)(F)F)(F)F,FC(c1cccc(c1)C1(COC2C(=C1)c1ccccc1C=C2)c1cccc(c1)C(F)(F)F)(F)F,292.5,0.152688186,0.2776,-8.3155,3.16814,319.46456687839134,0.214055959,-0.3961,-7.9313,311.67056,-0.838,-9.141,4.11934,NaN,NaN,409,NaN,409,NaN,NaN
ORYRJKISHDZTMW-UHFFFAOYSA-N,O=Cc1ccc(cc1)C#CC(O)C,O=Cc1ccc(cc1)C#CC(O)C,309.0,3.7645e-05,-0.3475,-8.9776,3.43610,361.68085882585666,7.362e-06,-0.9742,-8.6617,44.40062,-1.101,-9.752,1.59747,NaN,NaN,NaN,NaN,NaN,NaN,NaN
WDECIBYCCFPHNR-UHFFFAOYSA-N,c1ccc2c(c1)c1ccc3c(c1cc2)cccc3,c1ccc2c(c1)c1ccc3c(c1cc2)cccc3,312.7,0.100971851,0.3117,-7.7943,0.00013,346.3245765516862,1.471e-05,-0.42,-7.5836,0.00639,-0.898,-8.596,0.00126,NaN,NaN,306,NaN,306,NaN,NaN
NICGBSIQPYCRJD-UHFFFAOYSA-N,CC(NC(=O)CNc1ccccc1)CCc1ccccc1,CC(NC(=O)CNc1ccccc1)CCc1ccccc1,261.2,0.047188575,1.22,-7.6899,3.56228,289.9536913131517,0.001731582,0.3984,-8.3323,57.58446,0.145,-8.705,3.52036,NaN,NaN,NaN,NaN,NaN,NaN,NaN
AEDDIBAIWPIIBD-ZJKJAXBQSA-N,OC[C@H]1O[C@H]([C@@H]([C@H]([C@@H]1O)O)O)c1c(O)cc2c(c1O)c(=O)c1c(o2)cc(c(c1)O)O,OC[C@H]1O[C@H]([C@@H]([C@H]([C@@H]1O)O)O)c1c(O)cc2c(c1O)c(=O)c1c(o2)cc(c(c1)O)O,298.4,0.249984569,0.0634,-8.093,2.47958,356.78906015972274,0.000131979,-1.2504,-8.6812,29.08259,-1.283,-9.415,4.97421,NaN,NaN,366.0,NaN,196.0,NaN,NaN
ODNFNBNFERHNSM-UHFFFAOYSA-N,Brc1ccc(cc1)c1cn2c(n1)cc(cc2)C=Cc1cccs1,Brc1ccc(cc1)c1cn2c(n1)cc(cc2)C=Cc1cccs1,342.2,1.143389552,-0.3196,-7.549,5.04498,386.12332110091455,0.796425235,-0.8875,-7.4394,405.42857,-1.228,-8.765,5.83851,NaN,NaN,393.0,25118.864315095823,365.0,13489.628825916532,Toluene
MXVYENPZCPOMNK-UHFFFAOYSA-N,Cc1cc(C)c(c(c1)C)N=Nc1snc2c1cc(cc2)[N+](=O)[O-],Cc1cc(C)c(c(c1)C)N=Nc1snc2c1cc(cc2)[N+](=O)[O-],488.8,0.004496302,-1.6945,-8.3558,4.86205,616.2236501267578,0.007718893,-2.8325,-8.2723,224.53035,-2.386,-9.074,6.36761,NaN,NaN,440,NaN,440,NaN,NaN
NAVZYSVEEWSHGD-UHFFFAOYSA-N,COc1ccc2c(c1)C(=O)CC=N2,COc1ccc2c(c1)C(=O)CC=N2,311.1,0.118601221,-0.1354,-8.3696,0.17181,325.5887563169739,0.14341889,-0.8089,-8.4782,11.98011,-0.99,-8.99,0.70935,NaN,NaN,345.0,NaN,344.0,NaN,NaN
NMWKSGBZZQWIDI-UHFFFAOYSA-N,O=C(C(F)(F)F)C(=CC=C(c1ccc(cc1)Cl)c1ccc(cc1)Cl)C(=O)C(F)(F)F,O=C(C(F)(F)F)C(=CC=C(c1ccc(cc1)Cl)c1ccc(cc1)Cl)C(=O)C(F)(F)F,338.2,0.453964307,-1.3665,-8.787,3.97037,403.3318100374225,0.195270927,-2.188,-8.9293,208.19569,-1.99,-9.831,4.72636,NaN,NaN,390,NaN,390,NaN,NaN
KWPNRPMOVGRAMW-UHFFFAOYSA-N,CCCCCCCCCCCCCCCCN(c1ccc(cc1)C#Cc1ccc(s1)C=C(C(=O)O)C#N)CCCCCCCCCCCCCCCC,CN(c1ccc(cc1)C#Cc1ccc(s1)C=C(C(=O)O)C#N)C,370.8,1.941551577,-1.0688,-7.3564,8.61338,467.1597528466604,0.955362482,-1.7217,-7.5214,355.92491,-1.816,-8.317,8.51538,413.97059435472266,1.5516748546,480,NaN,480,NaN,dichloromethane
AJLMZNXYNBGGPG-UHFFFAOYSA-N,OCC(Cn1ccc(=CC=C2C(=O)ON=C2c2ccccc2)cc1)O,OCC(Cn1ccc(=CC=C2C(=O)ON=C2c2ccccc2)cc1)O,392.7,0.729185218,-0.7592,-7.2444,11.87832,486.594185264928,0.317414219,-1.3868,-7.504,106.34045,-1.388,-8.141,12.413,NaN,NaN,446,NaN,446,NaN,NaN
ZTOJFFHGPLIVKC-UHFFFAOYSA-N,CCn1c(=NN=c2sc3c(n2CC)ccc(c3)S(=O)(=O)O)sc2c1ccc(c2)S(=O)(=O)O,CCn1c(=NN=c2sc3c(n2CC)ccc(c3)S(=O)(=O)O)sc2c1ccc(c2)S(=O)(=O)O,304.6,1.582853471,0.2656,-7.3882,1.09244,331.86348609610184,0.00772719,-0.8824,-8.3704,20.19014,-1.32,-8.203,2.75714,311.91776650793594,1.3845999162,420,NaN,420,NaN,NaN
QZOGBGKXWBUUAI-UHFFFAOYSA-N,CCOC(=O)c1ccc(cc1)c1ccc(s1)C#Cc1ccc(cc1)OC,CCOC(=O)c1ccc(cc1)c1ccc(s1)C#Cc1ccc(cc1)OC,327.1,1.736574337,-0.2109,-7.478,3.68943,381.48984124770357,0.767034427,-0.874,-7.5234,53.70474,-1.129,-8.73,3.5917,350.317001043285,1.4832097725,350.0,NaN,13.0,NaN,NaN
XGUKONZPRSDQLZ-UHFFFAOYSA-N,CCCCCc1c(sc2c1sc(c2)C=NCCCC)c1nc2c(s1)cccc2,Cc1c(sc2c1sc(c2)C=NC)c1nc2c(s1)cccc2,332.6,1.46855832,-0.4743,-7.7573,0.90667,446.78990416397716,0.88862428,-1.4505,-7.5417,67.34633,-1.488,-8.391,2.17953,350.67369897397737,1.2284446517,376,84000.0,376,84000.0,NaN
BERHYNVXBYMYJP-UHFFFAOYSA-N,COc1ccccc1C1CC(=NN1c1ccccc1)c1ccc2c(c1)C1(c3c2cccc3)c2ccccc2c2c1cccc2,COc1ccccc1C1CC(=NN1c1ccccc1)c1ccc2c(c1)C1(c3c2cccc3)c2ccccc2c2c1cccc2,337.5,1.432398943,0.2857,-6.9069,3.99739,351.8280317976835,0.742934138,-0.5194,-7.4367,54.43968,-0.747,-7.977,4.15974,NaN,NaN,392,NaN,392,NaN,NaN
RUXMJXWUSOBOJP-UHFFFAOYSA-N,N#Cc1cc(Oc2ccc(cc2)CO)c(cc1C#N)Cl,N#Cc1cc(Oc2ccc(cc2)CO)c(cc1C#N)Cl,266.8,0.076702108,-0.6123,-9.476,6.43595,301.22497183066974,0.073494215,-1.3908,-8.954,124.66774,-1.728,-9.836,6.47215,NaN,NaN,707,NaN,707,NaN,NaN
QDVXCTMDYTYJJL-UHFFFAOYSA-N,CN(c1ccc(cc1)C=Cc1c(F)c(F)c(c(c1F)F)C=Cc1ccc(cc1)N(C)C)C,CN(c1ccc(cc1)C=Cc1c(F)c(F)c(c(c1F)F)C=Cc1ccc(cc1)N(C)C)C,364.6,2.688092618,-0.1434,-6.8028,0.39991,325.1618106622178,1.004359802,-0.6321,-7.7302,40.45173,-0.961,-8.165,2.25562,382.1836349349263,2.5836418027,408,NaN,408,NaN,dichloromethane
DNXHEGUUPJUMQT-UHFFFAOYSA-N,Oc1ccc2c(c1)CCC1C2CCC2(C1CCC2=O)C,Oc1ccc2c(c1)CCC1C2CCC2(C1CCC2=O)C,269.8,0.000323758,1.6086,-8.2103,2.08437,328.7833423641041,0.000111961,0.484,-8.4691,51.98017,0.113,-8.934,2.2774,NaN,NaN,222,NaN,222,NaN,NaN
OUEFOPKVSAFBME-UHFFFAOYSA-N,COC1CC(=C(C1=O)c1cc(sc1C)C)c1cc(sc1C)C,COC1CC(=C(C1=O)c1cc(sc1C)C)c1cc(sc1C)C,327.4,0.011578666,0.2511,-7.9754,3.40852,371.7667118605807,0.023529556,-0.5712,-7.6494,67.70353,-0.558,-8.439,3.01716,NaN,NaN,316,NaN,316,NaN,NaN
WYWIFABBXFUGLM-UHFFFAOYSA-N,Cc1cc(c(c(c1CC1=NCCN1)C)O)C(C)(C)C,Cc1cc(c(c(c1CC1=NCCN1)C)O)C(C)(C)C,248.8,0.055518596,1.7179,-8.0874,2.23705,298.1105996766138,0.01876272,0.5081,-8.1995,58.34366,0.172,-8.669,1.81972,NaN,NaN,300,NaN,300,NaN,NaN
IQEWYVIHLJJXKR-UHFFFAOYSA-N,Nc1ccc2c3c1cccc3c1c3c2cccc3ccc1,Nc1ccc2c3c1cccc3c1c3c2cccc3ccc1,406.4,0.561944175,-0.286,-6.7071,2.12694,430.7998554743004,0.595990271,-0.8301,-6.7015,20.77765,-1.139,-7.605,3.10796,NaN,NaN,468.0,NaN,455.0,NaN,Acetonitrile
AIXZBGVLNVRQSS-UHFFFAOYSA-N,CC(c1ccc2c(c1)nc(o2)c1ccc(s1)c1nc2c(o1)ccc(c2)C(C)(C)C)(C)C,CC(c1ccc2c(c1)nc(o2)c1ccc(s1)c1nc2c(o1)ccc(c2)C(C)(C)C)(C)C,332.8,1.732477563,-0.5068,-7.8389,1.56924,452.8276055715985,0.993427188,-1.6682,-7.593,7.47557,-1.685,-8.865,2.67669,348.2017384481687,1.566640627,NaN,NaN,NaN,NaN,NaN
ZGVHNHKXPMIFNZ-UHFFFAOYSA-N,CCn1c2ccccc2c2c1nc1c(n2)ccc2c1c(=O)[nH][nH]c2=O,CCn1c2ccccc2c2c1nc1c(n2)ccc2c1c(=O)[nH][nH]c2=O,356.1,0.07445666,-0.8769,-8.2137,3.64768,385.7629072977712,0.305879137,-1.6811,-8.3682,171.08402,-1.823,-8.83,4.04851,NaN,NaN,401.0,NaN,290.0,NaN,DMF
WULMFCSXQGFTHY-UHFFFAOYSA-N,Cc1cc(C)c(c(c1)C)B(c1c(C)cc(cc1C)C)c1ccc(s1)B1N(CCN1C(C)(C)C)C(C)(C)C,Cc1cc(C)c(c(c1)C)B(c1c(C)cc(cc1C)C)c1ccc(s1)B1N(CCN1C(C)(C)C)C(C)(C)C,276.1,0.340493082,0.179,-7.8358,2.01001,336.6391485351715,0.290601579,-0.0575,-7.6492,27.53264,-0.933,-7.864,3.48557,NaN,NaN,331.0,21000,331.0,14100,C6H12
HMVYPNGNVFFPTG-UHFFFAOYSA-N,ClCc1cc(=O)oc2c1cc1nc(oc1c2)c1ccccc1,ClCc1cc(=O)oc2c1cc1nc(oc1c2)c1ccccc1,298.7,0.735755671,-0.4715,-8.4162,4.79439,356.3788399123416,0.490751245,-1.2075,-8.2361,204.40806,-1.595,-9.246,4.31116,NaN,NaN,341,9549.92586021436,341,9549.92586021436,NaN
MWVTWFVJZLCBMC-UHFFFAOYSA-N,n1ccc(cc1)c1ccncc1,n1ccc(cc1)c1ccncc1,256.5,0.014626971,0.1124,-9.7805,0.00809,290.2251835334823,0.007059543,-0.3622,-9.2687,0.00126,-0.812,-10.381,0.00051,NaN,NaN,508.0,286000.0,337.0,15000.0,NaN
ALIGIAGHXMHHRH-UHFFFAOYSA-N,COC(=O)c1n2nc(C#Cc3ccc(cc3)F)ccc2c(c1C(=O)OC)C(=O)OC,COC(=O)c1n2nc(C#Cc3ccc(cc3)F)ccc2c(c1C(=O)OC)C(=O)OC,317.6,0.036700514,-0.4171,-8.4812,3.15132,383.0219289635578,0.277607789,-1.5463,-8.4877,68.25771,-1.721,-9.505,4.5052,NaN,NaN,467.0,NaN,358.0,NaN,DMSO
GQCFYXIISYWRAX-UHFFFAOYSA-N,CCCCCCCCN(c1ccccc1)c1ccc(cc1)C=CSC=Cc1ccc(cc1)N(c1ccccc1)CCCCCCCC,CN(c1ccccc1)c1ccc(cc1)C=CSC=Cc1ccc(cc1)N(c1ccccc1)C,330.1,1.532676162,0.4733,-7.033,2.51690,305.9827206453694,0.80502181,0.2368,-7.538,115.02273,-0.416,-7.866,1.84556,336.61171506322984,1.484453344,366.0,NaN,363.0,NaN,NaN
ZFMCGFRLKIHQSD-UHFFFAOYSA-N,COC(=O)CCCCCn1c(=O)c2cccc3c2c(c1=O)ccc3N1CCOCC1,COC(=O)Cn1c(=O)c2cccc3c2c(c1=O)ccc3N1CCOCC1,335.0,0.327345071,-0.7749,-8.3416,6.58653,338.5696297255698,0.383701479,-1.6661,-8.753,156.80150,-1.603,-9.489,3.61823,NaN,NaN,399.0,NaN,386.0,NaN,DMSO
YJCPPKZLAXLRKN-UHFFFAOYSA-N,C#Cc1c(C#Cc2ccc(s2)C#Cc2cc(cc(c2C#C)[Si](C)(C)C)[Si](C)(C)C)cc(cc1[Si](C)(C)C)[Si](C)(C)C,C#Cc1c(C#Cc2ccc(s2)C#Cc2cc(cc(c2C#C)[Si](C)(C)C)[Si](C)(C)C)cc(cc1[Si](C)(C)C)[Si](C)(C)C,338.9,1.877565144,-0.3136,-7.5459,0.55061,423.15426076963706,0.912388557,-0.6076,-6.9936,14.31352,-1.131,-8.362,1.29291,360.72326382485073,1.6066053375,410.0,46900,355.0,46900,NaN