inchikey,smi_pre,smi_post,lambda_sTDA (nm),f1_sTDA,lumo_dft,homo_dft,dmom_dft (D),lambda_z (nm),f1_z,lumo_z,homo_z,dmom_z (D),lumo_mopac,homo_mopac,dmom_mopac (D),lambda_tddft (nm),f1_tddft,lambda_exp_max (nm),epsilon_exp_max ,lambda_exp_min (nm),epsilon_exp_min ,solvent
NUHNGFZQTBZOGL-UHFFFAOYSA-N,CCCCN(c1ccc2c3c1cccc3c1c2nc(c(n1)C(=O)O)C(=O)O)c1ccccc1,CN(c1ccc2c3c1cccc3c1c2nc(c(n1)C(=O)O)C(=O)O)c1ccccc1,372.6,0.315705712,-1.1817,-7.9572,8.29712,383.0219289635578,0.151226419,-1.6205,-8.0847,379.08782,-2.181,-8.772,9.10382,NaN,NaN,457.0,NaN,451.0,NaN,NaN
USLRERGWRJIRKD-UHFFFAOYSA-N,Nc1ccc(cc1)Nc1nc(nc(n1)N1CCOCC1)N1CCOCC1,Nc1ccc(cc1)Nc1nc(nc(n1)N1CCOCC1)N1CCOCC1,274.7,0.056906118,1.7952,-7.3073,2.13047,299.98596275224696,0.053177632,0.4044,-7.8326,39.11302,0.007,-8.185,2.89754,NaN,NaN,278,18620.871366628657,278,18620.871366628657,CH 2 Cl 2
AKLGDILBXWPGMQ-UHFFFAOYSA-N,N#CC(=Cc1sc(c(c1)c1ccc(cc1)N(c1ccccc1)c1ccccc1)c1ccc(cc1)N(c1ccccc1)c1ccccc1)C(=O)O,N#CC(=Cc1sc(c(c1)c1ccc(cc1)N(c1ccccc1)c1ccccc1)c1ccc(cc1)N(c1ccccc1)c1ccccc1)C(=O)O,347.2,1.427821146,-0.9246,-7.3204,5.36651,440.5977199911288,0.711758259,-1.6447,-7.375,497.31282,-1.79,-7.996,4.89764,397.576376492671,1.0610562468,430,NaN,430,NaN,NaN
JIVLDFFWTQYGSR-UHFFFAOYSA-N,Cc1ccnc2c1ccc1c2nccc1C,Cc1ccnc2c1ccc1c2nccc1C,292.2,0.089092563,0.2645,-8.3702,3.94185,329.7452085252757,0.000274531,-0.3579,-8.02,51.91986,-0.843,-9.02,4.88049,NaN,NaN,238,41800.0,238,41800.0,NaN
FFVNUBVBPNUKBD-UHFFFAOYSA-N,CCOP(=O)(c1ccc(cc1)C1(C=Cc2c(O1)ccc1c2cccc1)c1ccccc1)OCC,CCOP(=O)(c1ccc(cc1)C1(C=Cc2c(O1)ccc1c2cccc1)c1ccccc1)OCC,323.6,0.237405403,0.2471,-7.7506,2.73092,348.3680764414264,0.24603346,-0.4066,-7.5261,177.51525,-0.806,-8.46,2.46299,NaN,NaN,433,NaN,433,NaN,NaN
FZSUPSZMRBREDT-UHFFFAOYSA-N,CCCCCCc1cc2c(s1)cc(s2)c1ccc2c(c1)cc1c(c2)cccc1,Cc1cc2c(s1)cc(s2)c1ccc2c(c1)cc1c(c2)cccc1,363.4,0.151643398,-0.2851,-7.3025,0.45501,395.2317449968239,0.602461562,-0.7847,-7.1206,219.92134,-1.218,-8.336,0.73672,NaN,NaN,363.0,NaN,323.0,NaN,NaN
BVFBTDPKGZCIBA-UHFFFAOYSA-N,O=C(Nc1ccccc1)Nc1ccc(cc1)Oc1ncnc2c1n(C)cc2,O=C(Nc1ccccc1)Nc1ccc(cc1)Oc1ncnc2c1n(C)cc2,253.9,0.641330726,1.0797,-8.0209,3.23047,309.41901274146164,0.385016324,-0.212,-8.2144,69.45662,-0.379,-8.795,4.94914,NaN,NaN,1000.0,NaN,630.0,NaN,NaN
VWPOPJYOUAKGLH-UHFFFAOYSA-N,CN(c1ccc(cc1)c1[nH]c(=O)c2c1c(=O)[nH]c2c1ccc(cc1)N(C)C)C,CN(c1ccc(cc1)c1[nH]c(=O)c2c1c(=O)[nH]c2c1ccc(cc1)N(C)C)C,418.1,1.27710219,-0.4152,-6.5498,0.05709,449.2181101648684,0.742286917,-1.3576,-7.3549,12.86360,-1.041,-7.895,1.98356,459.0137092637794,0.9783798882,562,NaN,562,NaN,dimethylsufoxide
WRMVYBRLUSMTGT-UHFFFAOYSA-N,Cc1ccccc1N=Nc1c(=O)[nH]c2n(c1N)c1ccccc1n2,Cc1ccccc1N=Nc1c(=O)[nH]c2n(c1N)c1ccccc1n2,408.3,0.004252574,-0.3597,-8.0314,5.06590,545.9453914817423,0.003213539,-1.3734,-8.0115,81.88206,-1.295,-8.794,5.8817,NaN,NaN,417.0,NaN,364.0,NaN,Chloroform
FCFIUTXNSUNRFV-UHFFFAOYSA-N,Cc1c(cccc1c1nc(nc(n1)c1ccccc1)c1ccccc1)c1ccc2c(c1)c1ccccc1n2c1ccccc1,Cc1c(cccc1c1nc(nc(n1)c1ccccc1)c1ccccc1)c1ccc2c(c1)c1ccccc1n2c1ccccc1,291.1,0.049631936,-0.0618,-7.6427,2.22181,331.68592403826557,0.064023723,-0.5535,-7.5691,80.18150,-1.077,-8.209,1.7358,NaN,NaN,415,NaN,415,NaN,NaN
UUTMJSIAYDKHBL-UHFFFAOYSA-N,Clc1ccc(cc1)c1cc(n(n1)Cc1ccc(cc1)C(C)(C)C)c1nnc(o1)c1cccc(c1)Br,Clc1ccc(cc1)c1cc(n(n1)Cc1ccc(cc1)C(C)(C)C)c1nnc(o1)c1cccc(c1)Br,273.0,1.125417675,-0.1191,-8.3349,4.99214,360.523984895329,0.572707425,-1.2643,-8.3297,303.15589,-1.489,-9.093,6.05991,NaN,NaN,274,NaN,274,NaN,dichloromethane
LUDPEBYLIZVYFS-UHFFFAOYSA-N,O=Cc1c(C)c2C=CC3(Oc2c2c1oc(=O)cc2C)N(Cc1ccccc1)c1c(C3(C)C)cccc1,O=Cc1c(C)c2C=CC3(Oc2c2c1oc(=O)cc2C)N(Cc1ccccc1)c1c(C3(C)C)cccc1,311.1,0.000205604,-0.0914,-8.2006,7.98367,376.1656505021349,0.005293455,-1.2498,-8.033,208.70830,-1.003,-8.745,6.77008,NaN,NaN,NaN,NaN,NaN,NaN,NaN
DUYGQMFRBYBABK-UHFFFAOYSA-N,CCCCCCCCC(Cn1c(c2cccs2)c2c(c1=O)c(n(c2=O)CC(CCCCCCCC)CCCCCC)c1ccc(s1)Br)CCCCCC,C(Cn1c(c2cccs2)c2c(c1=O)c(n(c2=O)CC(C)C)c1ccc(s1)Br)C,433.1,0.89279223,-1.0813,-7.2414,1.68241,391.3642626436353,0.463125627,-1.465,-8.2018,484.55591,-1.339,-8.408,1.69198,NaN,NaN,558.0,NaN,522.0,NaN,NaN
WGECBFCCRBLXED-UHFFFAOYSA-N,COc1ccc(cc1O)C1CC(=O)C(=O)C2=CC=CC3=CN=c4n(C123)nc(s4)C,COc1ccc(cc1O)C1CC(=O)C(=O)C2=CC=CC3=CN=c4n(C123)nc(s4)C,449.1,0.148889179,-0.6395,-7.4899,5.88769,491.4157685513423,0.118233334,-1.3452,-7.4887,131.96158,-1.384,-8.438,1.43341,NaN,NaN,527,NaN,527,NaN,NaN
UWQRKXUHDGOMND-UHFFFAOYSA-N,C#CCNC(=O)c1cc(n2c1cc(cc2)c1ccncc1)C(=O)c1ccccc1,C#CCNC(=O)c1cc(n2c1cc(cc2)c1ccncc1)C(=O)c1ccccc1,320.7,0.484789976,-0.3069,-7.9974,4.53292,407.0393906943653,0.36614979,-1.0491,-7.8075,44.51790,-1.068,-8.948,4.64039,NaN,NaN,395,NaN,395,NaN,NaN
DUFNNSLLGVBPFX-SGNDLWITSA-N,CC[C@@H]([C@H](C(=O)c1ccccc1)[C@H](c1ccccc1)C[N+](=O)[O-])c1ccc(cc1)Cl,CC[C@@H]([C@H](C(=O)c1ccccc1)[C@H](c1ccccc1)C[N+](=O)[O-])c1ccc(cc1)Cl,297.0,0.002778507,-0.0691,-9.0416,6.15892,413.5563655954091,5.3331e-05,-2.3945,-8.9991,265.68705,-0.854,-9.683,7.19588,NaN,NaN,NaN,NaN,NaN,NaN,NaN
MVOSNPUNXINWAD-UHFFFAOYSA-N,CC(c1ccc(cc1)Cl)O,CC(c1ccc(cc1)Cl)O,238.7,0.005493931,1.3275,-8.9548,1.45778,271.41899826073484,0.006336368,0.1994,-9.1841,110.71653,-0.321,-9.701,2.27647,NaN,NaN,NaN,NaN,NaN,NaN,NaN
IPRCNXICKYRQEY-UHFFFAOYSA-N,Oc1ccc(cc1)Cc1sccc1OS(=O)(=O)O,Oc1ccc(cc1)Cc1sccc1OS(=O)(=O)O,245.7,0.051138591,1.0098,-8.6793,4.15113,323.1279604000616,0.036406395,-0.6721,-8.2842,116.56900,-0.686,-9.072,2.8543,NaN,NaN,NaN,NaN,NaN,NaN,NaN
TWOVPESTRBTDBJ-UHFFFAOYSA-N,CCCCc1nc(c2n1ccc(c2)c1nnc(o1)c1cc(nn1Cc1ccc(cc1)[N+](=O)[O-])c1ccc(cc1)C)Cl,Cc1nc(c2n1ccc(c2)c1nnc(o1)c1cc(nn1Cc1ccc(cc1)[N+](=O)[O-])c1ccc(cc1)C)Cl,362.6,0.295584661,-0.5109,-7.8321,4.76305,448.08167114385134,0.427869179,-2.3332,-7.6507,230.72271,-1.722,-8.802,4.52536,NaN,NaN,404,NaN,404,NaN,NaN
FUVKBCWONALLJW-UHFFFAOYSA-N,CCCCCCCC(=O)c1sc(c(c1C#N)C#N)c1sc(c(c1C#N)C#N)C(=O)CCCCCCC,C(=O)c1sc(c(c1C#N)C#N)c1sc(c(c1C#N)C#N)C(=O)C,336.1,0.001383734,-2.2786,-10.0484,5.22661,394.8541350493747,0.414189744,-2.6824,-9.3843,72.55976,-2.848,-10.41,5.2583,NaN,NaN,342,NaN,342,NaN,NaN
RYSSDXPAURLNDG-UHFFFAOYSA-N,C=CCn1c(nc(c1c1ccco1)c1ccco1)c1ccco1,C=CCn1c(nc(c1c1ccco1)c1ccco1)c1ccco1,272.1,0.745435432,1.0539,-7.2481,2.58988,416.47362581627027,0.451338729,-0.521,-6.7907,23.84230,-0.648,-8.228,4.37131,NaN,NaN,311,NaN,311,NaN,NaN
SBTOFMXAZYVYIY-UHFFFAOYSA-N,CCCCN1c2ccc(cc2Sc2c1cccc2)C=Cc1cc(=O)oc2c1cc(C)cc2,CN1c2ccc(cc2Sc2c1cccc2)C=Cc1cc(=O)oc2c1cc(C)cc2,323.4,0.634125574,-0.3745,-7.5258,6.47613,332.13018592419945,0.339742319,-1.0541,-7.8341,65.76317,-1.17,-7.893,7.48795,NaN,NaN,423,NaN,423,NaN,chloroform
DCOJMXLQCPAGDZ-UHFFFAOYSA-N,Cc1ccc(cc1)c1nnc(o1)c1cc(nn1Cc1ccc(nc1)Cl)c1ccc(cc1)Cl,Cc1ccc(cc1)c1nnc(o1)c1cc(nn1Cc1ccc(nc1)Cl)c1ccc(cc1)Cl,277.7,1.224026508,-0.0602,-8.3907,6.74323,374.1225057498602,0.67813191,-1.3425,-8.2607,304.67352,-1.369,-9.212,7.51879,280.1902666875468,1.0153547599,275,NaN,275,NaN,dichloromethane
PIZFTPHVCKGMFN-UHFFFAOYSA-N,CCOC(=O)C1=C(NC(=O)C1=NNc1ccc(cc1)O)c1ccc2c(c1)cccc2,CCOC(=O)C1=C(NC(=O)C1=NNc1ccc(cc1)O)c1ccc2c(c1)cccc2,352.7,1.214468528,-0.329,-7.0424,6.46039,423.00988879393947,0.616657342,-1.4535,-7.5022,185.13764,-1.182,-8.027,5.62622,398.81688435807854,0.8631426103,470,NaN,470,NaN,NaN
KSEMJLXRHUTGBH-UHFFFAOYSA-N,COc1cc(ccc1NC(=O)C(n1c(=O)c2cccc3c2c(c1=O)ccc3NCCSc1ccccc1)CC(C)C)c1ccc(c(c1)OC)N,COc1cc(ccc1NC(=O)C(n1c(=O)c2cccc3c2c(c1=O)ccc3NCCSc1ccccc1)CC(C)C)c1ccc(c(c1)OC)N,353.6,0.302130249,-0.5086,-7.1417,4.57987,378.92481175276185,0.270148205,-1.6742,-7.5157,115.51211,-1.498,-7.907,8.37962,NaN,NaN,529.0,21379.620895022323,440.0,21379.620895022323,NaN
FKQDXYKCVXTHQS-UHFFFAOYSA-N,CCCCc1nc(c2n1ccc(c2)c1nnc(o1)c1cc(nn1Cc1ccc(cc1)F)c1ccccc1)Cl,Cc1nc(c2n1ccc(c2)c1nnc(o1)c1cc(nn1Cc1ccc(cc1)F)c1ccccc1)Cl,362.6,0.296900315,-0.4255,-7.7713,2.67737,444.54714379886576,0.429047668,-1.4396,-7.568,180.54896,-1.621,-8.738,2.69375,NaN,NaN,403,NaN,403,NaN,NaN
IDFFSQOLWRUEHQ-UHFFFAOYSA-N,Oc1cccc2c1nc(cc2)c1nc2c([nH]1)cccc2,Oc1cccc2c1nc(cc2)c1nc2c([nH]1)cccc2,319.4,0.176890471,-0.3118,-8.0738,0.94455,366.70866135907625,0.66158828,-1.1213,-7.842,36.82192,-1.317,-8.892,1.03269,NaN,NaN,323.0,NaN,259.0,NaN,NaN
IHBOEHLUIBMBMY-UHFFFAOYSA-N,O=C1Nc2c(C1=C1Nc3c(C1=O)cccc3)cc(cc2)S(=O)(=O)O,O=C1Nc2c(C1=C1Nc3c(C1=O)cccc3)cc(cc2)S(=O)(=O)O,422.8,0.314846551,-1.496,-8.1832,7.05038,423.4433005652448,0.272883692,-2.0845,-8.5708,229.78304,-1.964,-8.937,6.23484,NaN,NaN,NaN,NaN,NaN,NaN,NaN
IOALRUUMOYMRAC-UHFFFAOYSA-N,O=C(Cc1ccccc1)OCc1ccc2c3c1cccc3c1c3c2cccc3ccc1,O=C(Cc1ccccc1)OCc1ccc2c3c1cccc3c1c3c2cccc3ccc1,395.7,0.541732061,-0.5726,-7.1325,2.32464,414.2472382409077,0.582125499,-0.9029,-6.9293,103.89620,-1.409,-8.117,1.95482,NaN,NaN,445.0,NaN,438.0,NaN,NaN
NGISATQIEIEASS-UHFFFAOYSA-N,COc1ccc(cc1)C(=Cc1cc(OC)ccc1OC)C(=O)O,COc1ccc(cc1)C(=Cc1cc(OC)ccc1OC)C(=O)O,311.8,0.422706636,0.2457,-7.6647,2.42055,322.2880124915614,0.229269533,-0.596,-8.0857,77.34927,-0.697,-8.486,3.747,NaN,NaN,254,NaN,254,NaN,NaN
AAQOKANOEYVADG-UHFFFAOYSA-N,Cc1c(sc2c1c(C)c(s2)c1nnc(o1)C=Cc1ccccc1)c1nnc(o1)C=Cc1ccccc1,Cc1c(sc2c1c(C)c(s2)c1nnc(o1)C=Cc1ccccc1)c1nnc(o1)C=Cc1ccccc1,328.6,2.113326448,-0.4078,-7.9394,5.88278,415.4966434500793,1.291080114,-1.1673,-7.5448,96.34115,-1.592,-8.569,6.49963,335.1830035394416,1.9390466037,364,NaN,364,NaN,Ethanol
LYWMHLYDMIBIPV-UHFFFAOYSA-N,CC(=O)Nc1ccc(cc1)C=Cc1ccc(cc1)N(c1ccccc1)c1ccccc1,CC(=O)Nc1ccc(cc1)C=Cc1ccc(cc1)N(c1ccccc1)c1ccccc1,338.1,1.610252164,0.2525,-6.9619,3.40852,340.990644679603,0.852736676,-0.1174,-7.1285,117.18816,-0.499,-7.873,3.64027,346.13119209726256,1.5220954472,440.0,NaN,366.0,NaN,NaN
BBEAQIROQSPTKN-UHFFFAOYSA-N,c1cc2ccc3c4c2c(c1)ccc4ccc3,c1cc2ccc3c4c2c(c1)ccc4ccc3,323.8,0.23228732,0.0335,-7.5093,0.00005,356.891762825284,8.463e-06,-0.6538,-7.3427,0.00300,-1.102,-8.357,0.00025,NaN,NaN,373.0,NaN,336.0,NaN,THF
FJKCQSWTGPCOAK-UHFFFAOYSA-N,CCCCCCC#Cc1ccc2c3c1ccc1c3c(cc2)c(cc1)C(=O)O,C#Cc1ccc2c3c1ccc1c3c(cc2)c(cc1)C(=O)O,352.7,0.576064799,-0.7551,-7.7199,1.84003,384.0898339699618,0.66601025,-1.2739,-7.5305,111.82962,-1.718,-8.639,2.0443,NaN,NaN,435.0,NaN,275.0,NaN,NaN
WFAGTFSYWGDHEH-UHFFFAOYSA-N,N#Cc1ccc(cc1)N(c1ccc(cc1)c1cccs1)c1ccc(cc1)c1cccs1,N#Cc1ccc(cc1)N(c1ccc(cc1)c1cccs1)c1ccc(cc1)c1cccs1,307.4,0.900860737,0.1902,-7.4683,7.04876,339.9621563079344,0.48548498,-0.3869,-7.4903,22.64185,-0.938,-8.368,6.24008,318.89758741027146,0.6869307333,351,NaN,351,NaN,NaN
HCWZEPKLWVAEOV-UHFFFAOYSA-N,Clc1ccc(cc1c1cc(Cl)ccc1Cl)Cl,Clc1ccc(cc1c1cc(Cl)ccc1Cl)Cl,244.8,0.000171394,0.653,-9.0541,0.32720,274.72678574230815,0.008642842,-0.4707,-9.6567,0.54641,-0.861,-9.831,0.22108,NaN,NaN,NaN,NaN,NaN,NaN,NaN
IGHJOLSPQDBEBW-FQEVSTJZSA-N,COC(=O)[C@H](Cc1ccc2c(c1)nc(o2)c1ncc2c(c1)cccc2)NC(=O)OC(C)(C)C,COC(=O)[C@H](Cc1ccc2c(c1)nc(o2)c1ncc2c(c1)cccc2)NC(=O)OC(C)(C)C,298.4,0.493617935,-0.2291,-8.2235,5.39528,357.92205082420224,0.765059107,-0.9649,-7.8755,83.50836,-1.41,-9.117,5.9712,NaN,NaN,339.0,NaN,222.0,NaN,NaN
VZLUNLPYLKJNQR-UHFFFAOYSA-N,Cc1ccc(cc1)N=Nc1ccc(c2c1cccn2)O,Cc1ccc(cc1)N=Nc1ccc(c2c1cccn2)O,438.4,0.002916459,-0.5911,-7.7339,2.83944,527.3679217588416,0.014280169,-1.3069,-7.8245,130.90878,-1.347,-8.62,3.31795,NaN,NaN,397.0,NaN,386.0,NaN,DMSO
GSFXPOWJBGBGBR-UHFFFAOYSA-N,CCCCCCCCCCCCOc1ccc2c(c1)oc(n2)c1ccc(cc1)OC(=O)c1ccc2c(c1)nc(c(n2)c1ccc(c(c1)OCCCCCCCCCCCC)OCCCCCCCCCCCC)c1ccc(c(c1)OCCCCCCCCCCCC)OCCCCCCCCCCCC,COc1ccc2c(c1)oc(n2)c1ccc(cc1)OC(=O)c1ccc2c(c1)nc(c(n2)c1ccc(c(c1)OC)OC)c1ccc(c(c1)OC)OC,329.3,0.008794902,-0.6519,-7.7969,3.21420,378.6933366081358,0.006496673,-1.3867,-7.6107,77.83680,-1.553,-8.612,6.00848,NaN,NaN,397,NaN,397,NaN,NaN
WFBAAAWQSNSDKQ-UHFFFAOYSA-N,O=Cc1c(C)c2C=CC3(Oc2c2c1oc(=O)cc2C)N(C)c1c(C3(C)C)cccc1,O=Cc1c(C)c2C=CC3(Oc2c2c1oc(=O)cc2C)N(C)c1c(C3(C)C)cccc1,312.1,4.997e-05,-0.1358,-8.1402,7.88449,376.85166688602936,0.000153017,-1.2753,-8.3197,204.32393,-0.982,-8.753,6.77214,NaN,NaN,NaN,NaN,NaN,NaN,NaN
KAQMCPYXHZDBDA-UHFFFAOYSA-N,CCOC(=O)c1c(N)sc(c1c1ccccc1)N=Nc1ccc(cc1)OC,CCOC(=O)c1c(N)sc(c1c1ccccc1)N=Nc1ccc(cc1)OC,434.8,0.00010063,-0.1645,-7.2466,1.34930,541.652242924874,0.000230125,-1.2822,-7.5267,188.17325,-1.014,-8.235,2.08079,NaN,NaN,469.0,NaN,455.0,NaN,DMSO
YQRDJHKHOOQRJT-UHFFFAOYSA-N,CN(c1ccc(cc1)c1[nH]c(nc1c1ccc(cc1)N(C)C)C=CC=Cc1ccc(cc1)[N+](=O)[O-])C,CN(c1ccc(cc1)c1[nH]c(nc1c1ccc(cc1)N(C)C)C=CC=Cc1ccc(cc1)[N+](=O)[O-])C,378.6,2.25194212,-0.8067,-6.6135,10.99605,472.32075583049016,0.787889445,-2.4444,-6.8504,415.22651,-1.491,-7.739,9.61533,419.4890817743925,1.778501666,474,NaN,474,NaN,CH 2 Cl 2
YLFLZDOQZARRBW-UHFFFAOYSA-N,O=C(c1cn(c2ccc(cc2[N+](=O)[O-])[N+](=O)[O-])c2c(c1=O)cccc2)c1ccccc1Cc1ccccc1,O=C(c1cn(c2ccc(cc2[N+](=O)[O-])[N+](=O)[O-])c2c(c1=O)cccc2)c1ccccc1Cc1ccccc1,318.3,0.006512747,-1.5364,-8.583,4.26499,515.741257926388,0.005038152,-3.3199,-8.3672,292.12886,-2.53,-9.282,4.83573,NaN,NaN,375.0,NaN,320.0,NaN,NaN
HSMZTQXDWCPBFI-UHFFFAOYSA-N,Brc1cc2C=CC3(Oc2c(c1)c1nc(c(n1Cc1ccccc1)c1ccccc1)c1ccccc1)N(C)c1c(C3(C)C)cccc1,Brc1cc2C=CC3(Oc2c(c1)c1nc(c(n1Cc1ccccc1)c1ccccc1)c1ccccc1)N(C)c1c(C3(C)C)cccc1,297.6,0.244645209,0.4001,-7.5405,3.33877,344.1137896350365,0.25988395,-0.364,-7.1803,585.04292,-0.789,-8.303,4.61497,NaN,NaN,292,NaN,292,NaN,NaN
COBVJIXNJJXAJZ-UHFFFAOYSA-N,CC(c1cccc(c1N=C1C(=Nc2c(cccc2C(C)C)C(C)C)N=c2n1cccc2)C(C)C)C,CC(c1cccc(c1N=C1C(=Nc2c(cccc2C(C)C)C(C)C)N=c2n1cccc2)C(C)C)C,445.2,0.042426779,-0.9543,-7.7118,5.28085,455.32206538929,0.001620592,-1.2912,-7.7599,81.57877,-1.304,-8.646,3.47532,NaN,NaN,531,NaN,531,NaN,THF
NNHOBZMANBMYCQ-UHFFFAOYSA-N,N#Cc1cnn2c1nc(C)c1c2N(CC1)c1ccccc1C,N#Cc1cnn2c1nc(C)c1c2N(CC1)c1ccccc1C,280.0,0.355556639,0.8022,-7.8588,9.72135,378.2312336958623,0.168839879,-0.6707,-7.8536,108.06450,-0.83,-8.701,10.12556,NaN,NaN,330,NaN,330,NaN,NaN
SIGPZQKLDWREHU-UHFFFAOYSA-N,O=C1N(c2ccccc2)C(=O)c2c1cc1ccc3c4c1c2ccc4ccc3,O=C1N(c2ccccc2)C(=O)c2c1cc1ccc3c4c1c2ccc4ccc3,357.8,0.300808445,-0.8627,-7.9774,3.66156,403.8573237964289,0.305239209,-1.6583,-7.9023,68.50420,-1.911,-8.866,4.96335,NaN,NaN,431.0,NaN,304.0,NaN,NaN
NWPRCRWQMGIBOT-UHFFFAOYSA-N,OCCn1cnc2c1c(=O)n(C)c(=O)n2C,OCCn1cnc2c1c(=O)n(C)c(=O)n2C,251.5,0.235204796,0.6767,-8.6563,3.42196,325.84546230092946,0.254770515,-1.054,-8.8536,24.83850,-0.638,-9.115,1.90683,NaN,NaN,NaN,NaN,NaN,NaN,NaN
JYMUZHCCRNSGCQ-UHFFFAOYSA-N,CC1CCCc2c1nc1nc3ccccc3cc1c2,CC1CCCc2c1nc1nc3ccccc3cc1c2,340.1,0.089545373,-0.5252,-8.1155,3.81785,361.0489178960502,0.38944875,-1.0368,-7.9758,61.29132,-1.347,-8.937,4.51061,NaN,NaN,365,NaN,365,NaN,DMF
VAIZQZJUHXXPAH-UHFFFAOYSA-N,COc1ccc(cc1)C(=O)CC(=O)c1ccncc1,COc1ccc(cc1)C(=O)CC(=O)c1ccncc1,308.1,0.004648939,-0.4084,-8.8395,4.24840,368.1241045294052,0.001342063,-1.301,-9.1115,23.53518,-1.012,-9.425,4.34044,NaN,NaN,356,25703.957827688646,356,25703.957827688646,NaN
PXGDHJUQMSJHFT-UHFFFAOYSA-N,Cn1c2ccccc2c2c1cc(cc2)c1cccc2c1Oc1c(cccc1C2(C)C)c1ccc2c(c1)n(C)c1c2cccc1,Cn1c2ccccc2c2c1cc(cc2)c1cccc2c1Oc1c(cccc1C2(C)C)c1ccc2c(c1)n(C)c1c2cccc1,294.2,0.044048625,0.6981,-7.4087,3.57820,330.6245290813431,0.013455548,0.0309,-7.224,28.96838,-0.329,-7.844,4.08164,NaN,NaN,262,NaN,262,NaN,CHCl3
VSZDDNMBCBBGJH-UHFFFAOYSA-N,OCC(N=Cc1ccccc1O)(CO)CO,OCC(N=Cc1ccccc1O)(CO)CO,281.4,0.146938783,0.2258,-8.5729,1.58316,315.5617164813023,0.002335264,-0.521,-8.7147,60.49804,-0.721,-9.238,1.88037,NaN,NaN,NaN,NaN,NaN,NaN,NaN
FXXOWMASCSSPPJ-UHFFFAOYSA-N,CCc1ccc2c(c1N)C(=O)c1c(C2=O)cccc1,CCc1ccc2c(c1N)C(=O)c1c(C2=O)cccc1,369.0,0.23861778,-0.8752,-8.0767,2.49494,409.8651186958799,0.001267395,-1.7078,-8.3308,52.72917,-1.399,-8.622,2.74609,NaN,NaN,582.5,NaN,567.3,NaN,NaN
MBNIXZQHNJAWNH-LPTQZCDUSA-N,COC(=O)[C@]1(c2ccc(cc2)Br)[C@H]([C@]1(O[Si](C)(C)C)c1ccccc1)C,COC(=O)[C@]1(c2ccc(cc2)Br)[C@H]([C@]1(O[Si](C)(C)C)c1ccccc1)C,236.1,0.016704215,1.3165,-8.6572,2.77119,279.4324958429201,0.018911446,0.0345,-8.788,445.42241,-0.131,-9.185,3.9526,NaN,NaN,NaN,NaN,NaN,NaN,NaN
GWACMKOZJSQUOZ-UHFFFAOYSA-N,Clc1ccc(cc1)C=CC(=O)c1nccnc1C,Clc1ccc(cc1)C=CC(=O)c1nccnc1C,357.9,0.001549132,-0.7612,-8.6881,1.88554,402.67683795226907,0.002992193,-1.3367,-9.0256,147.97803,-1.411,-9.639,1.5398,NaN,NaN,305,NaN,305,NaN,ethanol
HVHKMUMXERBUAN-UHFFFAOYSA-N,CCC1=C(C)C(=Cc2[nH]c(c(c2C)CCC(=O)O)Cc2[nH]c(c(c2CCC(=O)O)C)C=C2NC(=O)C(=C2CC)C)NC1=O,CCC1=C(C)C(=Cc2[nH]c(c(c2C)CCC(=O)O)Cc2[nH]c(c(c2CCC(=O)O)C)C=C2NC(=O)C(=C2CC)C)NC1=O,317.2,1.384548996,-0.074,-7.3605,7.17923,398.4068072156287,0.56613765,-0.9342,-7.2327,106.43634,-1.097,-8.418,7.6678,359.07264331211286,0.7907172367,NaN,NaN,NaN,NaN,NaN
JRBQKECAYNKZJC-UHFFFAOYSA-N,O=C1C=CC(=O)C=C1Nc1ccc(cc1)N1CCOCC1,O=C1C=CC(=O)C=C1Nc1ccc(cc1)N1CCOCC1,458.7,0.090993988,-1.2318,-7.5053,3.15005,485.07119876957614,0.108183501,-2.3807,-8.0855,91.16703,-1.678,-8.39,2.97051,NaN,NaN,266,NaN,266,NaN,NaN
PNVJTZOFSHSLTO-UHFFFAOYSA-N,CSc1ccc(cc1C)OP(=S)(OC)OC,CSc1ccc(cc1C)OP(=S)(OC)OC,238.6,0.020812535,1.279,-8.5877,2.68531,303.4366089219375,0.000182778,0.3893,-8.6836,116.92506,-0.565,-8.353,2.46529,NaN,NaN,271,7000,271,7000,NaN
GLRUPGVSWQHYBM-NJDAHSKKSA-N,CCC[C@@H]([C@@H](C(=O)c1ccccc1)[C@@H](c1ccccc1)CC)C[N+](=O)[O-],CCC[C@@H]([C@@H](C(=O)c1ccccc1)[C@@H](c1ccccc1)CC)C[N+](=O)[O-],302.2,0.000756424,-0.0452,-9.1424,5.68198,409.8651186958799,8.0978e-05,-2.3104,-8.7944,152.31501,-0.767,-9.66,6.1272,NaN,NaN,NaN,NaN,NaN,NaN,NaN
XMLUKPCNPKCVQC-UHFFFAOYSA-N,CC=C(c1[nH]c2c(c1CCNS(=O)(=O)c1ccccc1[N+](=O)[O-])cccc2)c1ccccc1,CC=C(c1[nH]c2c(c1CCNS(=O)(=O)c1ccccc1[N+](=O)[O-])cccc2)c1ccccc1,318.5,0.01381067,-0.4965,-7.8338,5.99269,673.4611537506988,0.006646414,-2.8073,-7.6154,219.68634,-1.153,-8.517,7.35781,NaN,NaN,284,NaN,284,NaN,NaN
BEKAYYCNIPENDS-UHFFFAOYSA-N,CC(=CCC(C(=C)C)Cc1c(O)cc2c(c1O)c(=O)cc(o2)c1ccc(cc1O)O)C,CC(=CCC(C(=C)C)Cc1c(O)cc2c(c1O)c(=O)cc(o2)c1ccc(cc1O)O)C,288.2,0.547018826,-0.0065,-8.3081,2.92088,361.1540879857375,0.007185884,-1.2531,-8.5445,273.91013,-1.032,-9.184,2.69729,NaN,NaN,309.0,NaN,224.0,NaN,NaN
SRBONNKQWVTBCK-UHFFFAOYSA-N,Clc1ccc(cc1)c1nn(c2c1c1[nH][nH]c(=O)c1cn2)c1ccccc1,Clc1ccc(cc1)c1nn(c2c1c1[nH][nH]c(=O)c1cn2)c1ccccc1,284.5,0.469817708,0.0233,-8.2645,2.59564,335.36434515959877,0.235473942,-1.121,-8.2956,209.25929,-1.26,-9.012,2.0506,NaN,NaN,384,NaN,384,NaN,DMSO
ABAXGLQZLDFHIR-UHFFFAOYSA-N,CCCCCCn1cc(c2c1cccc2)c1sc(c2c1cccc2)c1ccc(s1)c1ccc(s1)c1sc(c2c1cccc2)c1cn(c2c1cccc2)CCCCCC,Cn1cc(c2c1cccc2)c1sc(c2c1cccc2)c1ccc(s1)c1ccc(s1)c1sc(c2c1cccc2)c1cn(c2c1cccc2)C,437.6,1.961127955,-0.2752,-6.5299,2.45652,502.16362254152966,0.834077801,-0.7958,-6.615,61.38972,-1.203,-7.835,3.59524,487.9154421677204,1.7029342329,620,NaN,620,NaN,CH 2 Cl
WIDMEMQUMOCVRP-UHFFFAOYSA-N,CCCCCCCCOc1cc(ccc1OCCCCCCCC)C#Cc1ccc(c2c1nsn2)C#Cc1ccc(c(c1)OCCCCCCCC)OCCCCCCCC,COc1cc(ccc1OC)C#Cc1ccc(c2c1nsn2)C#Cc1ccc(c(c1)OC)OC,404.8,1.396202649,-1.0144,-7.3463,2.74008,544.2677717537474,0.585080108,-1.9663,-7.3408,98.04949,-1.793,-8.176,3.59517,434.2095433537839,1.0840079642,445.0,NaN,439.0,NaN,Dichloromethane
CMQBQKIMQHXPLG-UHFFFAOYSA-N,CCCCCCCOc1ccc(cc1)C1CC(=NN1c1ccc(c(c1)C)C)c1ccc(cc1)Cl,COc1ccc(cc1)C1CC(=NN1c1ccc(c(c1)C)C)c1ccc(cc1)Cl,327.1,1.051330856,0.4562,-6.9803,3.10570,341.1783115176215,0.477938393,-0.6612,-7.6444,308.31655,-0.74,-8.081,2.74909,342.1480613992313,0.7378576768,412,NaN,412,NaN,NaN
BIGZAOFEOVKMIL-UHFFFAOYSA-N,Brc1ccc2c(c1)[nH]c(n2)c1ccc(cc1)c1ccc(cc1)c1ccc(cc1)c1nc2c([nH]1)cc(cc2)Br,Brc1ccc2c(c1)[nH]c(n2)c1ccc(cc1)c1ccc(cc1)c1ccc(cc1)c1nc2c([nH]1)cc(cc2)Br,309.6,2.876872667,-0.3078,-7.9193,0.00304,347.97698121106833,1.339291591,-0.8336,-7.9153,1.08370,-1.188,-8.966,4.74102,NaN,NaN,350,NaN,350,NaN,NaN
PHBFKQJTFYUMBU-UHFFFAOYSA-N,CCN(c1ccc(cc1)C=C1CCC(=Cc2ccc(cc2)N(C)C)C1=O)CC,CCN(c1ccc(cc1)C=C1CCC(=Cc2ccc(cc2)N(C)C)C1=O)CC,348.6,0.00225573,-0.0247,-6.9824,5.48899,380.2030003235316,0.00260053,-0.523,-7.7886,97.00301,-0.287,-7.97,4.26045,NaN,NaN,538.0,NaN,475.0,NaN,NaN
RZPPWGSAHMLQHK-UHFFFAOYSA-N,CC(=O)Oc1ccc2c(c1)[nH]c1c2cccc1,CC(=O)Oc1ccc2c(c1)[nH]c1c2cccc1,282.3,0.035053703,0.8441,-7.9225,1.73746,318.72544577250295,0.013518438,-0.0323,-7.7539,76.54828,-0.398,-8.503,1.74533,NaN,NaN,357.0,NaN,294.0,NaN,NaN