inchikey,smi_pre,smi_post,lambda_sTDA (nm),f1_sTDA,lumo_dft,homo_dft,dmom_dft (D),lambda_z (nm),f1_z,lumo_z,homo_z,dmom_z (D),lumo_mopac,homo_mopac,dmom_mopac (D),lambda_tddft (nm),f1_tddft,lambda_exp_max (nm),epsilon_exp_max ,lambda_exp_min (nm),epsilon_exp_min ,solvent
FCRWVVBLLKBFJO-UHFFFAOYSA-N,CCCCCCCCCCCCC1(CCCCCCCCCCCC)c2cc(ccc2c2c1cc(cc2)c1ccc(s1)c1ccc(s1)c1ccc(s1)c1cccs1)[N+](=O)[O-],C1(C)c2cc(ccc2c2c1cc(cc2)c1ccc(s1)c1ccc(s1)c1ccc(s1)c1cccs1)[N+](=O)[O-],383.3,2.332928809,-0.7715,-7.3173,5.82821,514.8845448733541,1.390710403,-2.4004,-6.9224,267.87168,-1.582,-8.74,6.23607,421.71494220829743,2.0266878925,249,NaN,249,NaN,NaN
WYOXOKXFJLGIGM-UHFFFAOYSA-N,C=Cc1ccc(cc1)CN1c2ccccc2Oc2c1cccc2,C=Cc1ccc(cc1)CN1c2ccccc2Oc2c1cccc2,305.5,0.016863114,0.6651,-7.1324,1.65031,300.4949064602609,0.101038788,0.2847,-7.7085,70.96887,-0.215,-7.869,2.33893,NaN,NaN,391.0,NaN,241.0,NaN,NaN
IHGYZBMQPYNIOE-UHFFFAOYSA-N,O=C1C(=CC=C2C=C(SC(=C2)c2ccccc2)c2ccccc2)C(=O)c2c1cccc2,O=C1C(=CC=C2C=C(SC(=C2)c2ccccc2)c2ccccc2)C(=O)c2c1cccc2,394.2,2.187895694,-1.142,-7.3092,4.53779,424.0225663662916,1.293730985,-1.4666,-7.6288,15.67680,-1.585,-8.223,2.05881,445.1057009845251,1.5001383341,556,NaN,556,NaN,dichloromethane
HBAILNXGTZYROL-UHFFFAOYSA-N,Clc1nc(Nc2ccc3c(c2)cc2c(c3)cccc2)nc(n1)Cl,Clc1nc(Nc2ccc3c(c2)cc2c(c3)cccc2)nc(n1)Cl,360.0,0.079022491,-0.3521,-7.5541,3.54633,369.88126015961717,0.127227997,-0.9672,-7.5068,470.96455,-1.456,-8.541,4.39483,NaN,NaN,398.0,NaN,394.0,NaN,"1,4-dioxane"
CABSFELLEWZIAK-UHFFFAOYSA-N,Clc1ccc2c(c1)c1ccccc1[nH]2,Clc1ccc2c(c1)c1ccccc1[nH]2,289.2,0.042938772,0.6416,-7.9148,3.40655,317.25741659545463,0.012370203,-0.2615,-8.1538,147.91671,-0.698,-8.608,3.49406,NaN,NaN,364.0,NaN,296.0,NaN,NaN
VWGSUJYLPLYNKV-UHFFFAOYSA-N,CCCCc1cc2nn(cc2c2n1c1ccccc1n2)c1ccccc1,Cc1cc2nn(cc2c2n1c1ccccc1n2)c1ccccc1,291.8,0.779292527,0.2714,-7.6902,1.82132,358.3358335419181,0.654223342,-0.7083,-7.6103,13.55825,-1.009,-8.425,1.88107,NaN,NaN,339.0,NaN,241.0,NaN,NaN
PDPKCTCYSVEKGJ-UHFFFAOYSA-N,OC1(CCC(CC1)c1ccccc1)c1ccc(s1)c1cccs1,OC1(CCC(CC1)c1ccccc1)c1ccc(s1)c1cccs1,284.3,0.675357165,0.56,-7.8498,1.32196,382.1954328159792,0.573665316,-0.5896,-7.3438,281.57646,-0.906,-9.018,1.31639,NaN,NaN,314.0,NaN,307.0,NaN,Ethanol
WORFRPFBLKSSCT-UHFFFAOYSA-N,NCc1ccccc1c1ccccc1c1nc2c(s1)cccc2,NCc1ccccc1c1ccccc1c1nc2c(s1)cccc2,262.8,0.264198988,0.3163,-8.5258,2.21033,293.10685202246725,0.248784403,-0.1002,-8.2261,77.83511,-0.834,-8.982,3.01892,NaN,NaN,378,13736,378,13736,MeOH
PKVVIRLFEGQDGI-UHFFFAOYSA-N,CCCOc1cc2c(cc1C=C(c1ccccc1)c1ccccc1)c1c(n2CCC)ccc(c1)C=C(c1ccccc1)c1ccccc1,CCCOc1cc2c(cc1C=C(c1ccccc1)c1ccccc1)c1c(n2CCC)ccc(c1)C=C(c1ccccc1)c1ccccc1,317.2,0.974191035,0.5837,-7.0502,3.93240,345.1675902157674,0.013085194,0.0796,-7.2171,46.07728,-0.248,-7.959,4.33025,331.44650201630566,0.934599456,474.0,NaN,316.0,NaN,THF
OAICMAQBVYPILV-UHFFFAOYSA-N,CC(C1CCC(=CSC=Cc2ccc(cc2)C=CSC=C2CCC(CC2)C(C)(C)C)CC1)(C)C,CC(C1CCC(=CSC=Cc2ccc(cc2)C=CSC=C2CCC(CC2)C(C)(C)C)CC1)(C)C,323.5,1.55173549,0.3915,-7.089,1.54440,286.6686668335345,0.014054987,0.1739,-7.9561,68.94789,-0.225,-7.884,3.97476,NaN,NaN,351,NaN,351,NaN,CH 2 Cl 2
WAOCWBHZUUIQOM-UHFFFAOYSA-N,[O-][N+](=O)c1cc2C(=CC=CC=c3c4cccc5c4c(n3Cc3ccccc3)ccc5)c3c(c2c(c1)[N+](=O)[O-])c(cc(c3)[N+](=O)[O-])[N+](=O)[O-],[O-][N+](=O)c1cc2C(=CC=CC=c3c4cccc5c4c(n3Cc3ccccc3)ccc5)c3c(c2c(c1)[N+](=O)[O-])c(cc(c3)[N+](=O)[O-])[N+](=O)[O-],534.5,0.271636704,-1.9503,-7.4243,9.18928,870.6755506004471,0.002194268,-3.6819,-7.6792,409.60135,-2.867,-8.524,12.58885,NaN,NaN,772,NaN,772,NaN,Toluene
ALRDOFWBPAZOCW-UHFFFAOYSA-N,CCOC(=O)c1[nH]c(c(c1C)C(=O)C)C,CCOC(=O)c1[nH]c(c(c1C)C(=O)C)C,272.9,8.5245e-05,1.205,-8.4952,2.99689,351.92789782998483,3.5633e-05,-0.7252,-8.5725,28.01004,-0.078,-9.291,2.77794,NaN,NaN,523.0,NaN,510.0,NaN,TFA
PYLAQPHZYPLRGU-UHFFFAOYSA-N,O=C1CC(C)(C)CC(=O)C1=CCC(c1ccc(cc1)N(C)C)c1ccc(cc1)N(C)C,O=C1CC(C)(C)CC(=O)C1=CCC(c1ccc(cc1)N(C)C)c1ccc(cc1)N(C)C,315.9,0.000612105,0.3331,-7.1858,5.12389,349.25126311409485,0.00050993,-0.6514,-7.7529,83.97444,-0.25,-8.142,6.60499,NaN,NaN,NaN,NaN,NaN,NaN,NaN
CTENQFGMVVTQOL-UHFFFAOYSA-N,O=C1c2ccccc2C(=O)c2c1c1nc(c3ccccc3)c(nc1cc2)c1ccccc1,O=C1c2ccccc2C(=O)c2c1c1nc(c3ccccc3)c(nc1cc2)c1ccccc1,400.7,0.008741565,-1.3492,-8.5077,1.93053,405.9731447462465,0.019891041,-1.7855,-8.1773,119.08343,-1.829,-9.44,2.74234,NaN,NaN,262,128824.95516931349,262,128824.95516931349,Hexane
BMYHXZMFSCTPOS-UHFFFAOYSA-N,Nc1ccc(cc1)S(=O)(=O)c1ccc(cc1)NC(=O)C(n1c(=O)c2cccc3c2c(c1=O)ccc3NCCSc1ccccc1)CC(C)C,Nc1ccc(cc1)S(=O)(=O)c1ccc(cc1)NC(=O)C(n1c(=O)c2cccc3c2c(c1=O)ccc3NCCSc1ccccc1)CC(C)C,352.9,0.328786428,-0.8564,-8.0358,9.60841,379.38861201194516,0.319883003,-1.8016,-8.3513,233.79226,-1.587,-8.649,9.71273,NaN,NaN,530.0,22387.21138568338,436.0,22387.21138568338,NaN
MQZDRNCTEURTHG-UHFFFAOYSA-N,Clc1ccc(cc1)N=Nc1c(C)nc2n1nc(C)c1c2c(c2ccccc2)n(n1)c1ccccc1,Clc1ccc(cc1)N=Nc1c(C)nc2n1nc(C)c1c2c(c2ccccc2)n(n1)c1ccccc1,426.2,0.00051363,-0.4852,-7.5454,6.94215,501.96031743118886,0.05725716,-1.2959,-7.3592,396.02188,-1.395,-8.513,7.71381,NaN,NaN,441.0,NaN,250.0,NaN,NaN
BCMCBBGGLRIHSE-UHFFFAOYSA-N,c1ccc2c(c1)ocn2,c1ccc2c(c1)ocn2,239.4,0.101056201,0.9842,-8.9935,1.35586,294.5692525671268,0.128445634,-0.2101,-8.5045,41.65236,-0.677,-9.718,1.73297,NaN,NaN,390.0,NaN,387.0,NaN,DMF
HYYBABOKPJLUIN-UHFFFAOYSA-N,OC(=O)c1ccccc1Nc1cccc(c1C)C,OC(=O)c1ccccc1Nc1cccc(c1C)C,298.5,0.230828651,0.6556,-7.7841,1.09990,349.4481353029979,0.19278229,-0.6629,-8.1182,134.15274,-0.515,-8.388,1.77002,NaN,NaN,545.0,NaN,544.0,NaN,dmf
JYMNQRQQBJIMCV-UHFFFAOYSA-N,N#Cc1ccc(cc1)N(C)C,N#Cc1ccc(cc1)N(C)C,267.1,0.045256242,1.0251,-7.9531,7.73520,290.7015202942642,0.014657799,-0.1827,-8.3407,64.06327,-0.375,-8.582,7.38474,NaN,NaN,1752,NaN,1752,NaN,NaN
XKBQXXMTTCBBBR-UHFFFAOYSA-N,c1ccc(nc1)c1[nH]nc(n1)CCCc1n[nH]c(n1)c1ccccn1,c1ccc(nc1)c1[nH]nc(n1)CCCc1n[nH]c(n1)c1ccccn1,248.5,0.572776963,0.3937,-8.7465,3.95668,311.04916810211654,0.648742511,-0.7119,-8.42,26.41555,-0.992,-9.521,4.00359,NaN,NaN,244,NaN,244,NaN,NaN
ZIYHBYGKMPBTEI-UHFFFAOYSA-N,O=c1oc2ccccc2cc1c1csc(n1)N=Nc1ccc(cc1)Nc1ccccc1,O=c1oc2ccccc2cc1c1csc(n1)N=Nc1ccc(cc1)Nc1ccccc1,446.7,0.011711908,-0.7469,-7.5544,6.35866,519.4143209279583,0.014129496,-1.3334,-7.7886,280.41598,-1.39,-8.493,6.46277,NaN,NaN,512.0,33113.112148259075,484.0,27542.28703338169,DMSO
SVALHZSVAQUOHS-UHFFFAOYSA-N,O=C(c1c2ccc3c4c2c(cc1[Si](C)(C)C)ccc4ccc3)NC(C)(C)C,O=C(c1c2ccc3c4c2c(cc1[Si](C)(C)C)ccc4ccc3)NC(C)(C)C,334.0,0.283185248,-0.0511,-7.5294,3.25611,361.1540879857375,0.001643078,-0.7514,-7.3912,42.86547,-1.167,-8.376,3.52574,NaN,NaN,427.0,NaN,315.0,NaN,NaN
BPDYYZKDAVVMSI-UHFFFAOYSA-N,Cc1c(C)cccc1N=Cc1ccccn1,Cc1c(C)cccc1N=Cc1ccccn1,304.6,0.286272245,0.0263,-8.2708,1.65041,358.2322981956188,0.003668592,-0.5313,-8.2216,58.51260,-0.775,-8.974,1.3948,NaN,NaN,332.0,NaN,245.0,NaN,NaN
KVGACMXPYJZEKS-UHFFFAOYSA-N,COc1ccccc1OCc1nnc(o1)c1cc(nn1Cc1ccc(cc1)C(C)(C)C)c1ccc(cc1)Cl,COc1ccccc1OCc1nnc(o1)c1cc(nn1Cc1ccc(cc1)C(C)(C)C)c1ccc(cc1)Cl,256.5,0.625441091,0.566,-8.3004,3.64069,326.4460200250228,0.156366044,-0.9536,-8.2825,321.26444,-0.94,-8.985,5.69841,NaN,NaN,262,41800,262,41800,DCM
HKNGDIKNMHTQJA-UHFFFAOYSA-N,Fc1ccc(cc1)c1c2ccccc2c(c2c1cccc2)C1c2ccccc2c2c1cccc2,Fc1ccc(cc1)c1c2ccccc2c(c2c1cccc2)C1c2ccccc2c2c1cccc2,374.2,0.276920461,-0.221,-7.421,1.06157,392.6035414993783,0.283783799,-0.7793,-7.1936,155.98900,-1.162,-8.278,1.7563,NaN,NaN,492.0,NaN,357.0,NaN,NaN
BIWQRBXMNCOZAA-UHFFFAOYSA-N,CCCCCCCCCCCOc1ccc(cc1)C1CC(=NN1c1ccc(c(c1)C)C)c1ccc(cc1)Cl,COc1ccc(cc1)C1CC(=NN1c1ccc(c(c1)C)C)c1ccc(cc1)Cl,326.9,1.052747759,0.4563,-6.9826,3.10709,341.46019940926374,0.479179456,-0.6597,-7.6416,308.24590,-0.742,-8.086,2.74415,340.59720072863973,0.7351404897,413,NaN,413,NaN,NaN
WEPBGSIAWZTEJR-UHFFFAOYSA-N,COc1c(oc2c(c1=O)c(O)cc(c2)O)c1ccc(c(c1)O)O,COc1c(oc2c(c1=O)c(O)cc(c2)O)c1ccc(c(c1)O)O,297.2,0.537107512,0.0151,-8.0638,1.71512,372.3249201366476,0.029849851,-1.2501,-8.3991,25.11827,-1.034,-8.925,0.57506,NaN,NaN,NaN,NaN,NaN,NaN,NaN
LFONBUJFKFZNFN-UHFFFAOYSA-N,Clc1ccc(cc1)c1ccccc1c1nc2n(c1)ccc(c2)C=Cc1ccc(cc1)N(C)C,Clc1ccc(cc1)c1ccccc1c1nc2n(c1)ccc(c2)C=Cc1ccc(cc1)N(C)C,335.3,1.784976172,0.209,-6.9391,5.53607,390.25558201291676,0.62434283,-0.6311,-7.1661,285.99052,-0.79,-8.11,4.13255,347.8695687810091,1.7527323507,430.0,NaN,342.0,NaN,Toluene
SZDFFHJYNDMYPE-UHFFFAOYSA-N,O=Cc1ccc(cc1)C=NNC(=O)c1ccc(cc1)Cn1c2ccccc2c2c1cccc2,O=Cc1ccc(cc1)C=NNC(=O)c1ccc(cc1)Cn1c2ccccc2c2c1cccc2,309.4,0.000116084,-0.5128,-7.7792,2.77595,365.0889234555467,1.5397e-05,-1.4203,-7.8432,94.98301,-1.076,-8.34,2.98506,NaN,NaN,300,NaN,300,NaN,NaN
GWHSTFQYFVZKJS-UHFFFAOYSA-N,CCCCc1nc(c2n1ccc(c2)c1nnc(o1)c1ccc(cc1)C)Cl,Cc1nc(c2n1ccc(c2)c1nnc(o1)c1ccc(cc1)C)Cl,358.1,0.294332785,-0.2383,-7.6011,1.26140,434.87968574361156,0.434972468,-1.1578,-7.3907,170.67268,-1.473,-8.624,1.3169,NaN,NaN,294,27265,294,27265,dichloromethane
HIAJNZGCSYPKJH-UHFFFAOYSA-N,c1ccc(cc1)c1ccc(cc1)C(=C(c1ccc(cc1)c1ccccc1)c1ccc(cc1)c1ccccc1)c1ccc(cc1)c1ccccc1,c1ccc(cc1)c1ccc(cc1)C(=C(c1ccc(cc1)c1ccccc1)c1ccc(cc1)c1ccccc1)c1ccc(cc1)c1ccccc1,324.9,1.006455339,0.0715,-7.3794,0.06220,334.45966659159336,0.531935657,0.0154,-7.1854,0.70678,-0.576,-8.622,0.0354,333.60471682830473,0.8195145398,346,NaN,346,NaN,NaN
AEWKNCOCDMQJRQ-UHFFFAOYSA-N,Nc1nn2c(c1N=Nc1ccccc1)nccc2c1ccccc1,Nc1nn2c(c1N=Nc1ccccc1)nccc2c1ccccc1,393.2,0.00020951,-0.1212,-7.5655,3.92749,497.1299053949625,0.010000473,-1.0326,-7.4067,17.37921,-1.223,-8.422,4.13632,NaN,NaN,430.0,NaN,235.0,NaN,Cyclohexane
LQIDJLPYLMTWTF-UHFFFAOYSA-N,Cc1ccc(cc1)c1sc(c2c1cc1ccccc1c2)c1cccs1,Cc1ccc(cc1)c1sc(c2c1cc1ccccc1c2)c1cccs1,474.4,0.431255492,-0.6504,-6.6832,0.81057,614.0871639698051,0.358874377,-1.3334,-6.3332,208.81806,-1.598,-7.797,1.46093,NaN,NaN,565,NaN,565,NaN,CH 2 Cl
GSMAURIQQSMXOK-UHFFFAOYSA-N,OC1=C(C(c2ccccc2)Nc2ccccn2)C(=O)c2c(C1=O)cccc2,OC1=C(C(c2ccccc2)Nc2ccccn2)C(=O)c2c(C1=O)cccc2,385.4,0.000948474,-1.2125,-7.9246,2.18506,436.87173504405797,0.017215005,-2.1564,-8.2459,45.12977,-1.974,-8.608,4.88063,NaN,NaN,440,3090.295432513592,440,3090.295432513592,NaN
IHIDWNDJZOWWCS-UHFFFAOYSA-N,[O-][N+](=O)c1cc(cc(c1N=Nc1ccc(c2c1cccc2)O)[N+](=O)[O-])C(=O)O,[O-][N+](=O)c1cc(cc(c1N=Nc1ccc(c2c1cccc2)O)[N+](=O)[O-])C(=O)O,442.6,0.00908683,-1.4131,-8.1055,2.12173,562.2866140839168,0.000819724,-3.188,-7.895,188.86412,-2.076,-8.945,2.41875,NaN,NaN,440.0,NaN,260.0,NaN,EtOAc
CMWKITSNTDAEDT-UHFFFAOYSA-N,O=Cc1ccccc1[N+](=O)[O-],O=Cc1ccccc1[N+](=O)[O-],321.1,0.011306987,-0.8844,-10.1591,4.61697,433.2082404105648,0.001193621,-2.9052,-10.2336,76.61696,-1.676,-10.612,5.3505,NaN,NaN,331.44,NaN,325.0,NaN,NaN
FXQKTVQNFVFWAA-UHFFFAOYSA-N,CCCCCCOc1c(OCCCCCC)c(OCCCCCC)c2c(c1OCCCCCC)c1c(OCCCCCC)c(OCCCCCC)ccc1c1c2cccc1,COc1c(OC)c(OC)c2c(c1OC)c1c(OC)c(OC)ccc1c1c2cccc1,311.9,0.003981784,0.6461,-7.6435,0.75169,367.2517725281507,0.004544307,-0.258,-7.5791,77.13613,-0.686,-8.115,1.41026,NaN,NaN,346.0,NaN,280.0,NaN,NaN
OGIDXAXQFPEKIG-UHFFFAOYSA-N,N#Cc1ccc(cc1)C=Cc1ccc(cc1)C=C(c1ccc(cc1)N(C)C)c1ccc(cc1)N(C)C,N#Cc1ccc(cc1)C=Cc1ccc(cc1)C=C(c1ccc(cc1)N(C)C)c1ccc(cc1)N(C)C,365.7,1.82781558,-0.3876,-6.8603,9.47983,343.35142178206496,0.848238708,-0.5797,-7.2465,159.91986,-0.985,-7.965,6.50927,386.53258825676346,1.6822162842,328,NaN,328,NaN,NaN
VYMCYYVUEUCQIF-UHFFFAOYSA-N,c1ccc(cc1)C#Cc1ccccc1c1ccccc1,c1ccc(cc1)C#Cc1ccccc1c1ccccc1,283.4,0.649214081,0.2995,-7.973,0.25668,342.30866484125806,0.000294771,0.1987,-7.9829,8.88347,-0.67,-8.825,0.13622,NaN,NaN,346,NaN,346,NaN,NaN
QXSNTVAXUFKRAF-UHFFFAOYSA-N,CCCCNC(=O)c1cc(=O)c2c(o1)ccc(c2)OC,CNC(=O)c1cc(=O)c2c(o1)ccc(c2)OC,300.9,1.7791e-05,-0.1802,-8.5601,5.94893,381.959945796376,2.33e-07,-1.5265,-9.067,41.20752,-1.077,-9.119,5.32809,NaN,NaN,338.0,NaN,205.0,NaN,NaN
RIKCGLHFZJHDHF-UHFFFAOYSA-N,CCCCCCCCOc1ccc(cc1)c1ccc2c(c1)Sc1c(N2CC)ccc(c1)C=C(C(=O)O)C#N,COc1ccc(cc1)c1ccc2c(c1)Sc1c(N2CC)ccc(c1)C=C(C(=O)O)C#N,373.7,0.533232999,-0.7468,-7.4202,7.45396,378.92481175276185,0.609372092,-1.4085,-7.7499,265.93001,-1.471,-7.888,5.65643,NaN,NaN,460.0,37900,304.0,37900,NaN
BROOBNNIMVRODR-UHFFFAOYSA-N,N#Cc1cc(sc1c1sc(cc1C#N)c1cccc(c1)C(F)(F)F)c1cccc(c1)C(F)(F)F,N#Cc1cc(sc1c1sc(cc1C#N)c1cccc(c1)C(F)(F)F)c1cccc(c1)C(F)(F)F,338.2,1.060029609,-1.1682,-8.545,0.47282,389.2753482119424,0.482192869,-1.474,-8.3147,159.09087,-2.067,-9.881,0.11871,371.6998231479777,0.8697102028,309,13182.567385564074,309,13182.567385564074,NaN
OLWGZEOBGZMDDD-UHFFFAOYSA-N,N#CC(=C1OC(=O)C(=C(C)C)C1=CC(c1c(C)c2c(n1C)cccc2)C)C#N,N#CC(=C1OC(=O)C(=C(C)C)C1=CC(c1c(C)c2c(n1C)cccc2)C)C#N,382.9,0.004746782,-0.8535,-7.6848,8.88797,445.8259561506784,0.014047721,-1.4441,-7.4836,136.01863,-1.342,-8.127,10.14167,NaN,NaN,160,NaN,160,NaN,NaN
SKPYQGQVPBWVHH-UHFFFAOYSA-N,C#Cc1nc(C=Cc2ccc(cc2)N(C)C)cc(n1)C=Cc1ccc(cc1)N(C)C,C#Cc1nc(C=Cc2ccc(cc2)N(C)C)cc(n1)C=Cc1ccc(cc1)N(C)C,341.9,2.449430108,-0.0796,-7.0735,4.66905,355.6632197518751,1.302292198,-0.6545,-7.5167,69.03558,-0.723,-8.1,2.82028,360.523969203953,2.2005982097,440.0,43916,440.0,43916,dichloromethane
SYHDSBBKRLVLFF-UHFFFAOYSA-N,CCN(CCOc1ccc(cc1)C(c1ccc(cc1)C)(Cc1ccc(cc1)Cl)O)CC,CCN(CCOc1ccc(cc1)C(c1ccc(cc1)C)(Cc1ccc(cc1)Cl)O)CC,243.3,0.043038859,1.4637,-8.1326,2.83553,290.9061436074699,0.041465149,0.2815,-8.0327,234.30224,0.054,-8.685,3.21385,NaN,NaN,663.0,NaN,377.0,NaN,NaN
SGFXQWONZAUXFD-UHFFFAOYSA-N,CN(C(CNC(=O)c1cccc2c1ccc1c2c2ccccc2s1)C)C,CN(C(CNC(=O)c1cccc2c1ccc1c2c2ccccc2s1)C)C,309.5,0.18104768,0.1657,-7.8777,4.56574,341.5542655798999,0.397910386,-0.6445,-7.7128,120.47691,-1.088,-8.396,4.72596,NaN,NaN,421.0,2630.2679918953813,350.0,2630.2679918953813,NaN
PEBOXYIVZCQYIB-UHFFFAOYSA-N,COc1ccc2c(c1)[Si](c1ccccc1)(c1ccccc1)c1c(N2)ccc(c1)OC,COc1ccc2c(c1)[Si](c1ccccc1)(c1ccccc1)c1c(N2)ccc(c1)OC,306.6,0.194020929,1.0004,-6.8922,0.82277,308.188412641073,0.005099627,0.494,-7.3848,53.67055,-0.14,-7.58,1.46656,NaN,NaN,289,NaN,289,NaN,NaN
ICTWZVQVCIEYCJ-UHFFFAOYSA-N,OCC=C(c1ccc(cc1)Cl)c1ccc(cc1)Cl,OCC=C(c1ccc(cc1)Cl)c1ccc(cc1)Cl,252.7,0.223956123,0.4382,-8.5041,0.46013,279.87403703273964,0.019656411,-0.2503,-8.669,103.65857,-0.646,-9.525,1.29955,NaN,NaN,NaN,NaN,NaN,NaN,NaN
KOYVKFSMDXDNKE-UHFFFAOYSA-N,COc1ccc(cc1)c1ccc2c(c1)C(C)(C)C1(N2CC(=O)N1)C,COc1ccc(cc1)c1ccc2c(c1)C(C)(C)C1(N2CC(=O)N1)C,263.2,0.303970428,1.3708,-7.5246,4.07755,297.03928702803944,0.05421476,0.2404,-7.9503,65.02610,-0.163,-8.547,4.60851,NaN,NaN,274,6500.0,274,6500.0,THF
BSIRJMIWDZHBTJ-UHFFFAOYSA-N,CO[Si](CCCSC(=O)c1ccc(cc1)c1ccccc1)(OC)OC,CO[Si](CCCSC(=O)c1ccc(cc1)c1ccccc1)(OC)OC,279.0,0.010681366,0.136,-8.6399,2.53065,323.80307758031773,0.000717261,-0.0697,-8.5306,222.43901,-0.551,-8.984,2.9409,NaN,NaN,290,123500.0,290,123500.0,chloroform
JUXXTBSGPFADAK-PKTZIBPZSA-N,COC(=O)[C@@]1(C[C@]1(O[Si](C(C)(C)C)(C)C)c1ccc(cc1)C(F)(F)F)c1ccc(cc1)Br,COC(=O)[C@@]1(C[C@]1(O[Si](C(C)(C)C)(C)C)c1ccc(cc1)C(F)(F)F)c1ccc(cc1)Br,239.2,0.086151391,0.7408,-8.7812,1.49710,281.20707281810763,0.019540275,-0.2359,-8.9243,223.38109,-0.902,-9.414,2.73834,NaN,NaN,NaN,NaN,NaN,NaN,NaN
XLTZBBQGGHSXKK-UHFFFAOYSA-N,COC(=O)c1c(ccc2c1nc1c3ccccc3c3c(c1n2)cccc3)C(=O)OC,COC(=O)c1c(ccc2c1nc1c3ccccc3c3c(c1n2)cccc3)C(=O)OC,346.0,0.006387565,-1.0074,-8.5142,3.47818,405.70745551539153,0.002504547,-1.6581,-8.2633,190.08271,-1.832,-9.244,2.68162,NaN,NaN,404.0,NaN,302.0,NaN,DMF
NDXDXCFWGXEDTM-ZCLHRBOTSA-N,CC[C@@H]1[C@]([C@@]1(O[Si](C(C)(C)C)(c1ccccc1)c1ccccc1)c1ccccc1)(C(=O)OC)c1ccc(cc1)Br,CC[C@@H]1[C@]([C@@]1(O[Si](C(C)(C)C)(c1ccccc1)c1ccccc1)c1ccccc1)(C(=O)OC)c1ccc(cc1)Br,235.3,0.042306825,1.0298,-8.658,2.70762,280.25361303233194,0.015550202,0.0335,-8.5892,503.24960,-0.181,-9.232,3.41231,NaN,NaN,NaN,NaN,NaN,NaN,NaN
LEJZJUBQGXUNOP-UHFFFAOYSA-N,Cc1ccc(cc1)c1nc2c(nc1c1ccc(cc1)C)ccc1c2C(=O)c2ccccc2C1=O,Cc1ccc(cc1)c1nc2c(nc1c1ccc(cc1)C)ccc1c2C(=O)c2ccccc2C1=O,402.5,0.00954561,-1.2826,-8.2564,2.88667,406.77230447999887,0.004597935,-1.7252,-8.2252,195.75582,-1.75,-9.149,3.90515,NaN,NaN,266,158489.3192461114,266,158489.3192461114,Hexane
KQJVBDLESMDEHN-UHFFFAOYSA-N,Cc1cc(C)c(c(c1Cn1cncc1)C)Cn1cncc1,Cc1cc(C)c(c(c1Cn1cncc1)C)Cn1cncc1,239.3,0.001091624,1.1103,-8.6654,1.84096,292.27769543965974,0.002652122,0.4127,-8.248,36.75841,-0.416,-9.339,1.98652,NaN,NaN,236,NaN,236,NaN,NaN
BDVFVCGFMNCYPV-UHFFFAOYSA-N,CC1CNCCN1S(=O)(=O)c1cccc2c1ccnc2,CC1CNCCN1S(=O)(=O)c1cccc2c1ccnc2,287.3,0.125930964,-0.234,-8.7978,3.68651,317.908201039753,0.108976991,-1.0626,-8.8067,90.93263,-1.331,-8.971,3.10315,NaN,NaN,NaN,NaN,NaN,NaN,NaN
QKLRCXLZBLTDSH-UHFFFAOYSA-N,Cc1ccc2c(n1)nc1c(c2)cccc1,Cc1ccc2c(n1)nc1c(c2)cccc1,330.9,0.085064588,-0.5473,-8.2753,3.77060,355.4592844194486,0.319041889,-1.0763,-8.0752,16.97421,-1.461,-9.082,4.35835,NaN,NaN,368,NaN,368,NaN,acetone
XTVLNPQYDLQJBB-UHFFFAOYSA-N,OCc1cc(Nc2cccc(c2)OC)c2c(c1N)C(=O)c1c(C2=O)cccc1,OCc1cc(Nc2cccc(c2)OC)c2c(c1N)C(=O)c1c(C2=O)cccc1,429.1,0.420873225,-1.0734,-7.4154,1.48122,463.6656634461618,0.283417516,-1.8181,-7.7463,45.37591,-1.559,-7.961,2.75085,NaN,NaN,610.0,NaN,574.0,NaN,NaN
ZIAYEAXFLHAFPN-UHFFFAOYSA-N,CCCCCCCCc1ccc2c3c1ccc1c3c(cc2)c(cc1)C(=O)O,Cc1ccc2c3c1ccc1c3c(cc2)c(cc1)C(=O)O,346.2,0.403718804,-0.4643,-7.6117,2.97713,373.4463807394689,0.509184096,-1.1118,-7.5183,144.50000,-1.474,-8.511,3.40408,NaN,NaN,425.0,NaN,269.0,NaN,NaN
WMDAVWLDBVIRBB-UHFFFAOYSA-N,N#Cc1ccc(cc1)c1cnc(n1C)c1ccc(cc1)c1nc2c(n1C)cccc2,N#Cc1ccc(cc1)c1cnc(n1C)c1ccc(cc1)c1nc2c(n1C)cccc2,304.0,1.864395738,-0.2618,-7.9521,4.38977,350.83247992502453,0.893066779,-0.6796,-7.7393,93.37682,-1.194,-8.957,3.75061,314.1385249043262,1.7258122841,328,39000,328,39000,NaN
WUWFMDMBOJLQIV-UHFFFAOYSA-N,NC1CCN(C1)c1nc2n(cc(c(=O)c2cc1F)C(=O)O)c1ccc(cc1F)F,NC1CCN(C1)c1nc2n(cc(c(=O)c2cc1F)C(=O)O)c1ccc(cc1F)F,287.0,0.331544269,-0.103,-8.4759,9.72917,342.87665488247694,2.0748e-05,-1.4138,-8.9311,173.49484,-1.22,-9.136,10.45648,NaN,NaN,NaN,NaN,NaN,NaN,NaN
GRFNBEZIAWKNCO-UHFFFAOYSA-N,Oc1cccnc1,Oc1cccnc1,251.4,0.008152206,1.1759,-8.8658,3.53811,293.0375759997723,0.003131127,0.0481,-8.8677,24.21196,-0.383,-9.595,3.56385,NaN,NaN,319.0,NaN,294.0,NaN,NaN
CVEFFQIBWCWMQT-UHFFFAOYSA-N,CCCCCCOc1cc(c2ccc(cc2)C#N)c(cc1c1ccc(cc1)C#N)OCCCCCC,COc1cc(c2ccc(cc2)C#N)c(cc1c1ccc(cc1)C#N)OC,276.5,1.063746335,-0.4132,-8.789,0.00133,310.81523791803374,0.638954809,-0.7892,-8.382,0.12165,-1.138,-8.809,0.00818,284.34784993977354,1.0985642272,424.0,NaN,290.0,NaN,NaN
CNMLZVJZJZFYQI-UHFFFAOYSA-N,N#Cc1ccc2c(c1)c1ccsc1cc2C,N#Cc1ccc2c(c1)c1ccsc1cc2C,303.8,0.171649416,-0.1874,-8.2951,4.95676,351.13055339989705,0.241438234,-0.8703,-7.8626,84.18085,-1.316,-8.856,4.40834,NaN,NaN,264,NaN,264,NaN,NaN
KGRZIDCMVJTKBQ-UHFFFAOYSA-N,N#Cc1c(N)nc(c(c1c1cccc(c1)[N+](=O)[O-])C#N)N,N#Cc1c(N)nc(c(c1c1cccc(c1)[N+](=O)[O-])C#N)N,316.0,0.000271084,-0.615,-8.744,7.39335,424.3127939955635,2.09e-07,-2.555,-8.8207,79.92689,-1.377,-9.622,8.25077,NaN,NaN,337.0,NaN,332.0,NaN,THF
ALUVZBJDFFKLKI-UHFFFAOYSA-N,CCn1c2ccc(cc2c2c1cccc2)C#Cc1cccs1,CCn1c2ccc(cc2c2c1cccc2)C#Cc1cccs1,300.4,0.171796225,0.5196,-7.3025,2.37147,376.6227169061472,0.672163968,-0.3848,-7.22,204.24377,-0.819,-8.153,2.84005,NaN,NaN,337.0,NaN,304.0,NaN,NaN
WIOGIPFJHDJLRB-UHFFFAOYSA-N,COC(=O)c1c(c2nc(C#N)c(nc2c2ccccc2)C#N)n2c(c1C(=O)OC)cc(cc2)C,COC(=O)c1c(c2nc(C#N)c(nc2c2ccccc2)C#N)n2c(c1C(=O)OC)cc(cc2)C,351.8,0.472380087,-1.1086,-8.0075,8.69127,444.54714379886576,0.235760784,-1.5399,-7.7296,128.85579,-2.184,-9.027,7.41221,NaN,NaN,452.0,NaN,447.0,NaN,THF
ATQVBSVAXDRWFW-HBMCJLEFSA-N,CN[C@H](C(=O)NC(=O)[C@@H](N[C@H](P(=O)(O)O)Cc1ccc(cc1)O)Cc1ccccc1)C(C)C,CN[C@H](C(=O)NC(=O)[C@@H](N[C@H](P(=O)(O)O)Cc1ccc(cc1)O)Cc1ccccc1)C(C)C,248.5,0.009441155,0.8043,-8.5283,4.59953,312.7754752913816,0.001299918,-0.3848,-8.6074,249.43000,-0.048,-8.976,3.81914,NaN,NaN,703,186208.71366628655,703,186208.71366628655,NaN
XXJWUUAGXHGNJX-UHFFFAOYSA-N,Cc1ccc2c(c1)oc(=O)cc2c1cc(nc(c1)c1cc2c(oc1=O)ccc1c2cccc1)c1cc2c(oc1=O)ccc1c2cccc1,Cc1ccc2c(c1)oc(=O)cc2c1cc(nc(c1)c1cc2c(oc1=O)ccc1c2cccc1)c1cc2c(oc1=O)ccc1c2cccc1,352.7,0.437859042,-0.8758,-8.1879,12.00778,412.73035421272857,0.430910233,-1.5573,-7.9355,227.11648,-1.713,-9.068,11.17108,NaN,NaN,385,NaN,385,NaN,chlorobenzene