inchikey,smi_pre,smi_post,lambda_sTDA (nm),f1_sTDA,lumo_dft,homo_dft,dmom_dft (D),lambda_z (nm),f1_z,lumo_z,homo_z,dmom_z (D),lumo_mopac,homo_mopac,dmom_mopac (D),lambda_tddft (nm),f1_tddft,lambda_exp_max (nm),epsilon_exp_max ,lambda_exp_min (nm),epsilon_exp_min ,solvent
QVUBKIAOVCQSCT-UHFFFAOYSA-N,Oc1ccc(cc1)c1[nH]c(cn2c1nc(c2=O)Cc1ccc(cc1)O)c1ccc(cc1)O,Oc1ccc(cc1)c1[nH]c(cn2c1nc(c2=O)Cc1ccc(cc1)O)c1ccc(cc1)O,431.7,0.198437104,-0.0878,-6.8465,4.96015,471.4228076254892,0.393603303,-1.1465,-7.152,16.41056,-1.135,-7.578,5.10406,NaN,NaN,225,NaN,225,NaN,NaN
JPZVIGSBIOZKIG-UHFFFAOYSA-N,Fc1ccc(cc1)c1[nH]c(cn2c1nc(c2=O)Cc1ccc(cc1)O)c1ccc(cc1)F,Fc1ccc(cc1)c1[nH]c(cn2c1nc(c2=O)Cc1ccc(cc1)O)c1ccc(cc1)F,436.2,0.185701759,-0.3728,-7.1179,3.52120,459.88204156344085,0.374809574,-1.3042,-7.3994,64.02238,-1.326,-7.803,3.47956,NaN,NaN,225,NaN,225,NaN,NaN
KVPCBSSNZWKUKD-UHFFFAOYSA-N,Oc1ccc(cc1)Cc1nc2n(c1=O)cc([nH]c2c1ccc(cc1)C(F)(F)F)c1ccc(cc1)C(F)(F)F,Oc1ccc(cc1)Cc1nc2n(c1=O)cc([nH]c2c1ccc(cc1)C(F)(F)F)c1ccc(cc1)C(F)(F)F,446.3,0.155595249,-0.7319,-7.3799,1.52428,460.56537297735383,0.39539339,-1.4844,-7.5618,299.41030,-1.762,-8.096,1.38188,NaN,NaN,225,NaN,225,NaN,NaN
OZDLBJLWSYLJKN-UHFFFAOYSA-N,Cc1ccc(cc1)c1[nH]c(cn2c1nc(c2=O)Cc1ccc(cc1)O)c1ccc(cc1)C,Cc1ccc(cc1)c1[nH]c(cn2c1nc(c2=O)Cc1ccc(cc1)O)c1ccc(cc1)C,438.0,0.181595349,-0.1632,-6.8791,6.40667,470.88567567604883,0.394985842,-1.0437,-7.0551,157.21781,-1.04,-7.479,6.95319,NaN,NaN,225,NaN,225,NaN,NaN
UQNUKVBGMDCGNK-UHFFFAOYSA-N,Oc1ccc(cc1)Cc1nc2n(c1=O)cc([nH]c2c1ccccc1)c1ccccc1,Oc1ccc(cc1)Cc1nc2n(c1=O)cc([nH]c2c1ccccc1)c1ccccc1,441.6,0.171063259,-0.2644,-6.9667,5.37807,464.18644105392616,0.372865019,-1.0686,-7.1372,106.71292,-1.1,-7.576,5.70711,NaN,NaN,225,NaN,225,NaN,NaN
KKKASEBKNFPSOU-UHFFFAOYSA-N,Fc1ccc(cc1)c1[nH]c(cn2c1nc(c2=O)Cc1ccc(cc1)O)c1ccc(cc1)O,Fc1ccc(cc1)c1[nH]c(cn2c1nc(c2=O)Cc1ccc(cc1)O)c1ccc(cc1)O,436.7,0.19469802,-0.274,-6.9843,5.19112,468.041519084574,0.376726551,-1.255,-7.2851,38.81158,-1.295,-7.688,5.40205,NaN,NaN,225,NaN,225,NaN,NaN
KQTPROCGPDWJFA-UHFFFAOYSA-N,Oc1ccc(cc1)Cc1nc2n(c1=O)cc([nH]c2c1ccc(cc1)C(F)(F)F)c1ccc(cc1)O,Oc1ccc(cc1)Cc1nc2n(c1=O)cc([nH]c2c1ccc(cc1)C(F)(F)F)c1ccc(cc1)O,449.2,0.183017775,-0.5492,-7.108,5.32880,466.9837981374903,0.377727702,-1.3485,-7.3841,250.39706,-1.597,-7.829,5.8776,NaN,NaN,225,NaN,225,NaN,NaN
IZWJOWHLOUIQOR-UHFFFAOYSA-N,Cc1ccc(cc1)c1[nH]c(cn2c1nc(c2=O)Cc1ccc(cc1)O)c1ccc(cc1)O,Cc1ccc(cc1)c1[nH]c(cn2c1nc(c2=O)Cc1ccc(cc1)O)c1ccc(cc1)O,436.6,0.194662643,-0.1571,-6.8645,5.58589,469.2815988096278,0.398036623,-1.0813,-7.106,130.27673,-1.082,-7.527,5.93249,NaN,NaN,225,NaN,225,NaN,NaN
NZJIGLJZQIRTCI-UHFFFAOYSA-N,Oc1ccc(cc1)Cc1nc2n(c1=O)cc([nH]c2c1ccccc1)c1ccc(cc1)O,Oc1ccc(cc1)Cc1nc2n(c1=O)cc([nH]c2c1ccccc1)c1ccc(cc1)O,439.8,0.184270862,-0.2116,-6.905,5.21519,467.51206035257786,0.38560428,-1.1113,-7.15,87.66949,-1.15,-7.575,5.58491,NaN,NaN,225,NaN,225,NaN,NaN
YHIPILPTUVMWQT-UHFFFAOYSA-N,Oc1ccc(cc1)Cc1nc2n(c1=O)cc([nH]c2Cc1ccccc1)c1ccc(cc1)O,Oc1ccc(cc1)Cc1nc2n(c1=O)cc([nH]c2Cc1ccccc1)c1ccc(cc1)O,409.0,0.180828932,0.2453,-6.8455,7.23151,450.52397676418485,0.394267207,-1.0275,-7.2125,97.61303,-0.886,-7.58,5.48707,NaN,NaN,254,NaN,254,NaN,NaN
HMXWSITYQRQVRI-UHFFFAOYSA-N,OC(=O)CCCOc1ccc(cc1)Cc1nc2n(c1=O)cc([nH]c2Cc1ccccc1)c1ccc(cc1)O,OC(=O)CCCOc1ccc(cc1)Cc1nc2n(c1=O)cc([nH]c2Cc1ccccc1)c1ccc(cc1)O,405.8,0.186777181,0.2327,-6.8678,7.43554,451.17976130095946,0.336532177,-1.0124,-7.2065,166.20198,-0.821,-7.53,5.82618,NaN,NaN,254,NaN,254,NaN,NaN
ZWQDSPLADIHHIM-UHFFFAOYSA-N,OC(=O)CCCOc1ccc(cc1)c1[nH]c(Cc2ccccc2)c2n(c1)c(=O)c(n2)Cc1ccc(cc1)O,OC(=O)CCCOc1ccc(cc1)c1[nH]c(Cc2ccccc2)c2n(c1)c(=O)c(n2)Cc1ccc(cc1)O,405.1,0.194786458,0.2566,-6.8482,7.94456,450.0333880417556,0.409026422,-1.0018,-7.1875,176.25490,-0.824,-7.526,7.51181,NaN,NaN,254,NaN,254,NaN,NaN
KOJAQKKQEGDQPC-UHFFFAOYSA-N,OC(=O)CCCc1[nH]c(cn2c1nc(c2=O)Cc1ccc(cc1)O)c1ccc(cc1)O,OC(=O)CCCc1[nH]c(cn2c1nc(c2=O)Cc1ccc(cc1)O)c1ccc(cc1)O,414.5,0.214043315,-0.2893,-7.2723,9.57568,466.45672838789943,0.349766755,-1.409,-7.49,38.92288,-0.834,-7.501,6.68412,NaN,NaN,215,NaN,215,NaN,NaN
XLBOVHAPKGNTAN-UHFFFAOYSA-N,OC(=O)CCCOc1ccc(cc1)Cc1[nH]c(cn2c1nc(c2=O)Cc1ccc(cc1)O)c1ccc(cc1)O,OC(=O)CCCOc1ccc(cc1)Cc1[nH]c(cn2c1nc(c2=O)Cc1ccc(cc1)O)c1ccc(cc1)O,412.5,0.17670268,0.344,-6.757,8.26050,452.99305226709413,0.433187922,-1.0112,-7.1826,79.05572,-0.83,-7.54,7.62001,NaN,NaN,215,NaN,215,NaN,NaN
CCLQKVKJOGVQLU-UHFFFAOYSA-N,NCCCC(=O)NC(C(=O)O)Cc1cnc[nH]1,NC(=O)NC(C(=O)O)Cc1cnc[nH]1,212.5,0.006645598,1.9349,-8.8021,3.83936,283.327692882778,0.001511239,-0.0903,-8.1831,58.89690,0.173,-9.213,8.4983,NaN,NaN,214.0,NaN,192.0,NaN,NaN
ZOSQFDVXNQFKBY-CGAXJHMRSA-N,O[C@H]1C[C@@H](O[C@@H]1COP(=O)(OP(=O)(O[C@H]1O[C@@H](C)[C@@H]([C@H]([C@H]1O)O)O)O)O)n1cc(C)c(=O)[nH]c1=O,O[C@H]1C[C@@H](O[C@@H]1COP(=O)(OP(=O)(O[C@H]1O[C@@H](C)[C@@H]([C@H]([C@H]1O)O)O)O)O)n1cc(C)c(=O)[nH]c1=O,241.1,0.283794098,0.4363,-9.2377,6.18453,300.6406362888062,0.000713761,-0.9047,-9.3692,228.26856,-1.643,-9.561,4.55408,NaN,NaN,595,NaN,595,NaN,NaN
FEWJPZIEWOKRBE-UHFFFAOYSA-L,OC(C(C(=O)[O-])O)C(=O)[O-],OC(C(C(=O)[O-])O)C(=O)[O-],NaN,NaN,NaN,NaN,NaN,NaN,NaN,NaN,Nan,NaN,NaN,NaN,NaN,NaN,NaN,729,NaN,729,NaN,NaN
DDQCRHMAPMBAFL-ALKRTJFJSA-N,OC(=O)[C@@H](NC(=O)[C@@H]1CCC(=O)N1)CC1C=NC=N1,OC(=O)[C@@H](NC(=O)[C@@H]1CCC(=O)N1)CC1C=NC=N1,NaN,NaN,NaN,NaN,NaN,NaN,NaN,NaN,Nan,NaN,NaN,NaN,NaN,NaN,NaN,595,NaN,595,NaN,NaN
ADDJKOLVQCQUMT-LLTYBXMGSA-N,O=C1CC[C@H](N1)C(=O)N[C@H](C(=O)N1CCC[C@H]1C(=O)O)CC1N=CN=C1,O=C1CC[C@H](N1)C(=O)N[C@H](C(=O)N1CCC[C@H]1C(=O)O)CC1N=CN=C1,NaN,NaN,NaN,NaN,NaN,NaN,NaN,NaN,Nan,NaN,NaN,NaN,NaN,NaN,NaN,596,NaN,596,NaN,NaN
KVQRJKXUWMIGHS-UHFFFAOYSA-N,O=C(c1ccc(cc1C)C1=NOC(C1)(c1cc(Cl)c(c(c1)Cl)Cl)C(F)(F)F)NCc1ccc2c(c1)B(O)OC2(C)C,O=C(c1ccc(cc1C)C1=NOC(C1)(c1cc(Cl)c(c(c1)Cl)Cl)C(F)(F)F)NCc1ccc2c(c1)B(O)OC2(C)C,260.5,0.411195773,0.1275,-8.7759,3.83755,300.786507533973,0.073456029,-1.1661,-8.6764,720.05264,-1.359,-9.695,5.87788,NaN,NaN,220,NaN,220,NaN,NaN
VMOJIHDTVZTGDO-UHFFFAOYSA-N,Cc1ccc2c(c1)c(ccc2C)C(C)C,Cc1ccc2c(c1)c(ccc2C)C(C)C,291.6,0.086991641,0.8373,-7.7958,0.28989,323.5495783024626,0.018991543,0.027,-7.5817,21.17400,-0.273,-8.423,0.58034,NaN,NaN,347.79,NaN,347.79,NaN,NaN
NNFXNJQHMTXACA-IENPIDJESA-N,ClC([C@H]1OC1)Oc1ccccc1,ClC([C@H]1OC1)Oc1ccccc1,231.9,0.001594417,1.4764,-9.2699,1.13112,270.7078567805757,0.007734507,0.4659,-8.9177,120.92145,-0.102,-9.462,0.45797,NaN,NaN,225,NaN,225,NaN,NaN
NUSLZFBLYXSYSW-UHFFFAOYSA-N,ClC(c1cccc2c1cc1cc3cc4ccccc4cc3cc1c2)c1cccc2c1cc1cc3cc4ccccc4cc3cc1c2,ClC(c1cccc2c1cc1cc3cc4ccccc4cc3cc1c2)c1cccc2c1cc1cc3cc4ccccc4cc3cc1c2,505.3,0.247705816,-1.0955,-6.6926,2.25783,503.7960113998524,0.342640594,-1.4362,-6.7131,206.80601,-1.814,-7.85,2.64984,NaN,NaN,614,NaN,614,NaN,acetonitrile
DMHGLXRDZDEMIA-UHFFFAOYSA-N,O=[NH+]C=c1ccn(cc1)CCOCCn1ccc(=C[NH+]=O)cc1.[Br-].[Br-],O=[NH+]C=c1ccn(cc1)CCOCCn1ccc(=C[NH+]=O)cc1.[Br-].[Br-],NaN,NaN,NaN,NaN,NaN,NaN,NaN,NaN,Nan,NaN,NaN,NaN,NaN,NaN,NaN,715,NaN,715,NaN,NaN
JLNGEXDJAQASHD-UHFFFAOYSA-N,CCN(C(=O)c1ccccc1)CC,CCN(C(=O)c1ccccc1)CC,243.8,0.020972089,1.1346,-9.0022,3.58944,295.2004723940563,0.002153054,0.2028,-9.1279,43.30319,-0.128,-9.272,4.09916,NaN,NaN,713,NaN,713,NaN,NaN
RWGFKTVRMDUZSP-UHFFFAOYSA-N,CC(c1ccccc1)C,CC(c1ccccc1)C,230.4,0.001785617,1.8012,-8.9353,0.36653,270.7669762076953,0.010598053,0.7455,-8.646,23.09097,0.353,-9.436,0.59504,NaN,NaN,704,NaN,704,NaN,NaN
WUSAVCGXMSWMQM-UHFFFAOYSA-N,CCCCN(C(c1ccc(cc1)OC)C(=O)N)CCCC,CN(C(c1ccc(cc1)OC)C(=O)N)C,242.8,0.035574973,1.8234,-8.155,3.20405,291.7961835855582,0.000958386,0.6207,-8.3616,44.42876,0.211,-8.833,3.21466,NaN,NaN,733,NaN,733,NaN,NaN
UUEVFMOUBSLVJW-UHFFFAOYSA-N,O=[NH+]C=c1ccn(cc1)CCOCCOCCn1ccc(=C[NH+]=O)cc1.[Br-].[Br-],O=[NH+]C=c1ccn(cc1)CCOCCOCCn1ccc(=C[NH+]=O)cc1.[Br-].[Br-],NaN,NaN,NaN,NaN,NaN,NaN,NaN,NaN,Nan,NaN,NaN,NaN,NaN,NaN,NaN,748,NaN,748,NaN,NaN
KLSJWNVTNUYHDU-UHFFFAOYSA-N,Nc1ncn[nH]1,Nc1ncn[nH]1,NaN,NaN,NaN,NaN,NaN,NaN,NaN,NaN,Nan,NaN,NaN,NaN,NaN,NaN,NaN,443,NaN,443,NaN,NaN
DMWVYCCGCQPJEA-UHFFFAOYSA-N,CC(OOC(C)(C)C)(CCC(OOC(C)(C)C)(C)C)C,CC(OOC(C)(C)C)(CCC(OOC(C)(C)C)(C)C)C,NaN,NaN,NaN,NaN,NaN,NaN,NaN,NaN,Nan,NaN,NaN,NaN,NaN,NaN,NaN,440,NaN,440,NaN,NaN
IGUZFFOBAZCVRK-VAOFZXAKSA-N,OC[C@H]1O[C@H](C[C@@H]1O)n1cc(c2ccc(s2)Br)c(=O)[nH]c1=O,OC[C@H]1O[C@H](C[C@@H]1O)n1cc(c2ccc(s2)Br)c(=O)[nH]c1=O,298.3,0.554635226,0.0529,-8.0202,5.96378,372.3249201366476,0.002099628,-1.193,-8.5038,349.98126,-1.259,-9.172,3.34955,NaN,NaN,462,NaN,462,NaN,NaN
UYQMSQMCIYSXOW-UHFFFAOYSA-N,Oc1cc(O)c(cc1O)O,Oc1cc(O)c(cc1O)O,263.4,0.104734342,1.9323,-7.432,4.80205,301.51799223128324,0.036621571,0.2693,-8.352,3.39946,-0.29,-8.463,0.27627,NaN,NaN,465,NaN,465,NaN,NaN
ASIDMJNTHJYVQJ-UHFFFAOYSA-N,OCCCCCCCCCCCCBr,OCCCCCCCCCCCCBr,NaN,NaN,NaN,NaN,NaN,NaN,NaN,NaN,Nan,NaN,NaN,NaN,NaN,NaN,NaN,468,NaN,468,NaN,NaN
RAHWBHSCAILHCG-UHFFFAOYSA-N,COc1ccc2c(c1)c(CCNCC1COc3c(O1)cccc3)c[nH]2,COc1ccc2c(c1)c(CCNCC1COc3c(O1)cccc3)c[nH]2,271.3,0.095013522,1.4814,-7.6664,2.51954,313.09141011490823,0.036828178,0.313,-7.6958,23.38513,-0.144,-8.281,2.70035,NaN,NaN,473,NaN,473,NaN,NaN
WTUAWDHYAPLDBV-UHFFFAOYSA-N,Clc1ccccc1N1C(=O)Cc2c(C1=O)cccc2,Clc1ccccc1N1C(=O)Cc2c(C1=O)cccc2,248.0,0.003224692,0.2336,-9.1635,2.70355,318.3980441846524,0.001408902,-0.9311,-9.0395,83.01455,-0.916,-9.607,3.36855,NaN,NaN,246,NaN,246,NaN,NaN
ZUJOTEPCEUXWRU-UHFFFAOYSA-N,O=C1Cc2ccccc2C(=O)N1c1cccc(c1Cl)Cl,O=C1Cc2ccccc2C(=O)N1c1cccc(c1Cl)Cl,247.1,0.005860041,0.1487,-9.1845,4.07675,317.6638442364941,0.001221283,-1.061,-9.3417,214.37885,-1.018,-9.707,4.93145,NaN,NaN,242,NaN,242,NaN,NaN
WHXOZOHNVNLIPD-UHFFFAOYSA-N,Clc1ccc(c(c1)Cl)N1C(=O)Cc2c(C1=O)cccc2,Clc1ccc(c(c1)Cl)N1C(=O)Cc2c(C1=O)cccc2,248.0,0.008144962,0.122,-9.241,4.45596,317.908201039753,0.001341825,-1.0917,-9.3142,229.04784,-1.037,-9.678,5.41753,NaN,NaN,240,NaN,240,NaN,NaN
MCEJDPIAUIAWSU-UHFFFAOYSA-N,Clc1ccc(c(c1)N1C(=O)Cc2c(C1=O)cccc2)Cl,Clc1ccc(c(c1)N1C(=O)Cc2c(C1=O)cccc2)Cl,247.2,0.004317303,0.127,-9.0295,3.62250,317.7452547552631,0.001288079,-1.0835,-9.362,190.08372,-1.03,-9.607,4.50462,NaN,NaN,240,NaN,240,NaN,NaN
MRCAWQQIRQEGQI-UHFFFAOYSA-N,O=C1Cc2ccccc2C(=O)N1c1c(Cl)cccc1Cl,O=C1Cc2ccccc2C(=O)N1c1c(Cl)cccc1Cl,247.2,0.005657655,0.1986,-9.2289,2.03804,316.9330225089562,0.000859848,-0.9769,-9.3345,111.99321,-0.931,-9.787,2.61108,NaN,NaN,244,NaN,244,NaN,NaN
BWKUYZVFAFFROW-UHFFFAOYSA-N,Cc1ccc(c(c1)Br)N1C(=O)Cc2c(C1=O)cccc2,Cc1ccc(c(c1)Br)N1C(=O)Cc2c(C1=O)cccc2,249.2,0.006309011,0.2637,-8.9795,2.17074,320.9531410963077,0.000852939,-0.9392,-8.6532,168.10398,-0.858,-9.332,2.44852,NaN,NaN,245,NaN,245,NaN,NaN
NTHUUXAHNAJLIJ-UHFFFAOYSA-N,Brc1ccccc1N1C(=O)Cc2c(C1=O)cccc2,Brc1ccccc1N1C(=O)Cc2c(C1=O)cccc2,248.8,0.004551297,0.2228,-9.0927,2.67642,319.7117029538516,0.000786837,-0.967,-8.9702,186.73777,-0.905,-9.449,3.2646,NaN,NaN,242,NaN,242,NaN,NaN
HPOSNEHKDXNNLA-UHFFFAOYSA-N,Clc1ccccc1CN1C(=O)Cc2c(C1=O)cccc2,Clc1ccccc1CN1C(=O)Cc2c(C1=O)cccc2,248.6,0.015512967,0.2861,-9.0328,2.74606,313.88404659621176,0.001213095,-0.7825,-9.0252,45.25795,-0.759,-9.609,2.48362,NaN,NaN,244,NaN,244,NaN,NaN
LSFZGVVUMDQWMO-UHFFFAOYSA-N,O=c1c2ccccc2cc2n1c1ccccc1o2,O=c1c2ccccc2cc2n1c1ccccc1o2,301.0,0.191075665,0.3736,-7.6455,2.31908,343.8275052842586,0.233550973,-0.6143,-7.9558,18.75718,-0.823,-8.554,1.60971,NaN,NaN,234,NaN,234,NaN,NaN
XXXSRWVPUYHEJU-UHFFFAOYSA-N,Clc1cccc2c1oc1n2c(=O)c2c(c1)cccc2,Clc1cccc2c1oc1n2c(=O)c2c(c1)cccc2,301.1,0.214217419,0.2219,-7.7857,0.98699,343.06640399973344,0.243861179,-0.7859,-8.1461,167.50387,-1.019,-8.696,0.44031,NaN,NaN,242,NaN,242,NaN,NaN
WAVQWWLRPPKWEH-UHFFFAOYSA-N,Clc1ccc2c(c1)oc1n2c(=O)c2c(c1)cccc2,Clc1ccc2c(c1)oc1n2c(=O)c2c(c1)cccc2,300.8,0.241002713,0.2064,-7.7825,2.40022,342.6871155486558,0.248043185,-0.8182,-8.1765,203.19884,-1.069,-8.713,2.07709,NaN,NaN,243,NaN,243,NaN,NaN
VFWIPLKJIMISMJ-UHFFFAOYSA-N,Clc1ccc2c(c1)n1c(o2)cc2c(c1=O)cccc2,Clc1ccc2c(c1)n1c(o2)cc2c(c1=O)cccc2,302.3,0.221355508,0.1962,-7.77,3.56126,342.4977856505626,0.239213985,-0.8016,-8.1673,186.54306,-1.06,-8.716,3.06061,NaN,NaN,242,NaN,242,NaN,NaN
BMLMJKPIKSXXON-UHFFFAOYSA-N,Clc1cccc2c1n1c(o2)cc2c(c1=O)cccc2,Clc1cccc2c1n1c(o2)cc2c(c1=O)cccc2,305.0,0.185871413,0.2514,-7.7055,3.40171,341.64838359190867,0.239275877,-0.6953,-8.0772,126.76810,-0.978,-8.613,2.7603,NaN,NaN,240,NaN,240,NaN,NaN
PYMCYIRRFJXHAR-UHFFFAOYSA-N,Cc1ccc2c(c1)oc1n2c(=O)c2c(c1)cccc2,Cc1ccc2c(c1)oc1n2c(=O)c2c(c1)cccc2,301.8,0.218393627,0.4358,-7.5689,2.61475,345.35988413789323,0.250577719,-0.5758,-7.8697,19.43815,-0.743,-8.459,2.24778,NaN,NaN,236,NaN,236,NaN,NaN
BQRJXEZVPKQHMZ-OAHLLOKOSA-N,O=C(C[C@H](c1ccccc1)O)OCc1ccccc1,O=C(C[C@H](c1ccccc1)O)OCc1ccccc1,231.1,0.000545214,1.4404,-8.9862,1.89135,276.8740473548541,0.000842432,0.1217,-8.6187,83.42230,0.051,-9.642,1.91609,NaN,NaN,254,NaN,254,NaN,NaN
FOZBVELTCSSVCE-GFCCVEGCSA-N,O[C@@H](C(=C)C)CC(=O)OCc1ccccc1,O[C@@H](C(=C)C)CC(=O)OCc1ccccc1,232.0,0.001722837,1.3921,-9.2213,2.08799,277.8668722669289,0.001330447,0.1731,-8.8749,73.06475,0.004,-9.763,2.49744,NaN,NaN,254,NaN,254,NaN,NaN
NPRDUHYQNYROTF-UHFFFAOYSA-N,CCCCN1C(=O)NC2C1(c1ccccc1)C(=O)N(C)c1c2cccc1,CN1C(=O)NC2C1(c1ccccc1)C(=O)N(C)c1c2cccc1,249.9,0.057532202,1.0199,-8.5982,5.97312,306.13382322346587,0.004864959,-0.1892,-8.7913,82.71753,-0.509,-9.041,5.55407,NaN,NaN,254,NaN,254,NaN,NaN
VNPWVMVYUSNFAW-WFMPWKQPSA-N,OC(=O)[C@H](CCSC[C@H]1O[C@H]([C@@H]([C@@H]1O)O)n1cnc2c1[nH]cnc2=O)N,OC(=O)[C@H](CCSC[C@H]1O[C@H]([C@@H]([C@@H]1O)O)n1cnc2c1[nH]cnc2=O)N,262.3,0.002407716,0.8601,-8.7874,13.21639,338.1079858344796,0.00182661,-0.6417,-8.6349,51.82345,-0.608,-9.07,13.30519,NaN,NaN,411,NaN,411,NaN,NaN
NWUYDTGYTUQMDG-CYBMUJFWSA-N,SCCNC(=O)[C@H]1CCCN1S(=O)(=O)c1ccc(cc1)C,SCCNC(=O)[C@H]1CCCN1S(=O)(=O)c1ccc(cc1)C,239.2,0.034896802,0.57,-9.0811,3.77989,289.00745549068455,0.003985999,-0.4366,-9.7121,79.45095,-0.725,-8.6,5.95054,NaN,NaN,384,9000,384,9000,NaN
NGAKDIWPTMPPFP-UHFFFAOYSA-N,OC(=O)C(c1ccc(cc1)C(=O)CCCN1CCC(CC1)C(c1ccccc1)(c1ccccc1)O)(C)C,OC(=O)C(c1ccc(cc1)C(=O)CCCN1CCC(CC1)C(c1ccccc1)(c1ccccc1)O)(C)C,294.1,0.000349786,0.3523,-8.3929,0.57978,351.23002381162513,0.000726447,-0.5601,-8.244,218.89380,-0.66,-8.786,2.13822,NaN,NaN,230,NaN,230,NaN,NaN
KTGPDDPEVRJSFY-UHFFFAOYSA-N,O=Cc1ccc(c(c1F)F)O,O=Cc1ccc(c(c1F)F)O,303.1,9.0457e-05,0.0035,-9.2978,3.13793,364.44502764698314,1.1171e-05,-1.3697,-9.7826,52.65156,-1.169,-10.095,2.50992,NaN,NaN,220,NaN,220,NaN,NaN
XRJVRHOPKCXHKJ-UHFFFAOYSA-N,COC(=O)CCc1ccc2c(c1OC)C=CC(O2)(C)C,COC(=O)CCc1ccc2c(c1OC)C=CC(O2)(C)C,284.5,0.121810094,1.0351,-7.8867,2.46148,318.47983150655966,0.098116953,0.1397,-7.7583,91.04428,-0.369,-8.627,2.605,NaN,NaN,254,NaN,254,NaN,NaN
UBACNSNNFBHJLG-SLFFLAALSA-N,COc1ccc(cc1)c1ccc2c3c1[C@H](O)[C@H](O)[C@H](c3ccc2)O,COc1ccc(cc1)c1ccc2c3c1[C@H](O)[C@H](O)[C@H](c3ccc2)O,291.4,0.095509063,0.531,-8.0085,4.18381,321.36909902929926,0.01452967,-0.2046,-7.8653,92.67724,-0.769,-8.92,3.8906,NaN,NaN,254,NaN,254,NaN,NaN
GDRFCTLKPGCLFR-FQEVSTJZSA-N,O=C(Oc1cccc2c1cccc2)C[C@@H](C(=O)Oc1cccc2c1cccc2)O,O=C(Oc1cccc2c1cccc2)C[C@@H](C(=O)Oc1cccc2c1cccc2)O,290.4,0.007644887,0.4272,-8.102,2.29125,316.2862204222032,0.000525135,-0.3255,-7.8147,162.98154,-0.722,-8.921,1.83853,NaN,NaN,222,NaN,222,NaN,NaN
GDRFCTLKPGCLFR-HXUWFJFHSA-N,O=C(Oc1cccc2c1cccc2)C[C@H](C(=O)Oc1cccc2c1cccc2)O,O=C(Oc1cccc2c1cccc2)C[C@H](C(=O)Oc1cccc2c1cccc2)O,289.9,0.007663668,0.4339,-8.0995,2.27562,318.9714391703207,0.001123723,-0.3202,-7.7975,167.37228,-0.55,-8.736,1.67892,NaN,NaN,222,NaN,222,NaN,NaN
ARIRIZBKMKMEBD-UHFFFAOYSA-N,ONC(=O)CC1(CCOCC1)S(=O)(=O)c1ccc(cc1)Oc1ccccc1,ONC(=O)CC1(CCOCC1)S(=O)(=O)c1ccc(cc1)Oc1ccccc1,249.6,0.193452498,0.4272,-8.8674,2.85796,300.34931784278984,0.001075509,-0.6234,-8.8103,143.64881,-0.799,-9.549,3.30984,NaN,NaN,540,3100,540,3100,methanol
ROSNVSQTEGHUKU-UHFFFAOYSA-N,ONC(=O)C1(CCOCC1)CS(=O)(=O)c1ccc(cc1)Oc1ccc(cc1)Cl,ONC(=O)C1(CCOCC1)CS(=O)(=O)c1ccc(cc1)Oc1ccc(cc1)Cl,244.8,0.148735894,0.5162,-9.0366,2.05802,293.45372403669506,0.003220041,-0.4677,-9.2274,127.76741,-0.875,-9.627,3.38362,NaN,NaN,527,6700,527,6700,methanol
SPTYROSLSCXFSZ-LLVKDONJSA-N,CCOC(=O)[C@@](C(F)(F)F)(c1ccc(o1)[Si](C)(C)C)O,CCOC(=O)[C@@](C(F)(F)F)(c1ccc(o1)[Si](C)(C)C)O,213.9,0.403530746,1.6401,-8.716,4.10941,296.0463190198273,0.171483448,-0.2509,-8.4316,216.41630,-0.113,-9.53,4.75675,NaN,NaN,210,NaN,210,NaN,NaN
UFNDYRHYYNWOCQ-MRVPVSSYSA-N,CCOC(=O)[C@@](C(F)(F)F)(c1ccco1)O,CCOC(=O)[C@@](C(F)(F)F)(c1ccco1)O,205.3,0.272062028,1.7377,-8.9512,3.87950,289.5474040296676,0.118120257,-0.4741,-8.8266,120.37491,-0.35,-9.955,3.79553,NaN,NaN,210,NaN,210,NaN,NaN
RSSCUTUDBGEMGZ-SECBINFHSA-N,CCOC(=O)[C@@](C(F)(F)F)(c1ccc(o1)C)O,CCOC(=O)[C@@](C(F)(F)F)(c1ccc(o1)C)O,208.7,0.346309107,1.8235,-8.578,4.23961,301.8115832655883,0.16730762,-0.3884,-8.4714,146.79166,-0.203,-9.587,4.31164,NaN,NaN,210,NaN,210,NaN,NaN
XTEBQZFFDUQNKH-CQSZACIVSA-N,CCOC(=O)[C@@](C(F)(F)F)(c1ccc(o1)c1ccccc1)O,CCOC(=O)[C@@](C(F)(F)F)(c1ccc(o1)c1ccccc1)O,268.6,0.554333794,0.6369,-8.1086,3.96664,344.7836440642482,0.450060308,-0.6327,-7.944,255.44127,-0.879,-9.171,4.1276,NaN,NaN,210,NaN,210,NaN,NaN
VKUJGOMFAKDMQB-RUZDIDTESA-N,CCOC(=O)[C@@](C(F)(F)F)(c1ccc(o1)CO[Si](C(C)(C)C)(c1ccccc1)c1ccccc1)O,CCOC(=O)[C@@](C(F)(F)F)(c1ccc(o1)CO[Si](C(C)(C)C)(c1ccccc1)c1ccccc1)O,234.0,0.002393815,0.8609,-8.5479,4.41820,299.04534106489064,0.111852754,-0.2553,-8.3389,426.09267,-0.319,-9.44,3.4359,NaN,NaN,210,NaN,210,NaN,NaN
AKKBTKUFNVSYHC-HXUWFJFHSA-N,CCOC(=O)[C@@](C(F)(F)F)(c1oc(cc1c1ccccc1)c1ccccc1)O,CCOC(=O)[C@@](C(F)(F)F)(c1oc(cc1c1ccccc1)c1ccccc1)O,268.3,0.703775252,0.6545,-8.0374,4.15990,348.0746726712624,0.463805725,-0.5164,-7.7532,245.53460,-0.766,-8.981,3.74689,NaN,NaN,210,NaN,210,NaN,NaN
IRUXGAPHRKSSMF-MRVPVSSYSA-N,CCOC(=O)[C@@](C(F)(F)F)(c1cccs1)O,CCOC(=O)[C@@](C(F)(F)F)(c1cccs1)O,226.1,0.156965196,1.0443,-9.0484,3.65530,288.3353451290783,0.160343879,-0.4759,-8.7832,85.69428,-0.946,-9.414,3.40393,NaN,NaN,210,NaN,210,NaN,NaN
UIFUACAHNPVCIF-SECBINFHSA-N,CCOC(=O)[C@@](C(F)(F)F)(c1ccc(s1)C)O,CCOC(=O)[C@@](C(F)(F)F)(c1ccc(s1)C)O,232.0,0.218729188,1.1029,-8.7226,4.06289,300.56775371031193,0.194172465,-0.3904,-8.4583,122.39074,-0.812,-9.34,4.01138,NaN,NaN,210,NaN,210,NaN,NaN
ZOQFCCWJBVOJKD-MRVPVSSYSA-N,CCOC(=O)[C@@](C(F)(F)F)(c1ccc[nH]1)O,CCOC(=O)[C@@](C(F)(F)F)(c1ccc[nH]1)O,216.0,0.170731333,1.6918,-8.3444,2.62315,305.37979902833416,0.092729213,-0.4476,-8.2097,135.65255,0.028,-9.341,2.43502,NaN,NaN,210,NaN,210,NaN,NaN
DTVSUFNJGFBJRS-MRVPVSSYSA-N,CCOC(=O)[C@@H](c1ccc(o1)C)O,CCOC(=O)[C@@H](c1ccc(o1)C)O,211.9,0.248216914,2.0026,-8.3525,3.36495,303.06575019678235,0.163305658,-0.0925,-8.1856,69.60608,0.181,-9.248,3.0705,NaN,NaN,210,NaN,210,NaN,NaN
SLAKMKJFEAXLEY-CYBMUJFWSA-N,CCOC(=O)[C@@H](c1ccc(o1)c1ccccc1)O,CCOC(=O)[C@@H](c1ccc(o1)c1ccccc1)O,269.6,0.555719162,0.7533,-7.9436,3.22046,344.7836440642482,0.442248969,-0.4175,-7.7274,109.79185,-0.654,-8.925,2.26951,NaN,NaN,210,NaN,210,NaN,NaN
WXUVRYLFHAJESW-HSZRJFAPSA-N,CCOC(=O)[C@@H](c1ccc(o1)CO[Si](C(C)(C)C)(c1ccccc1)c1ccccc1)O,CCOC(=O)[C@@H](c1ccc(o1)CO[Si](C(C)(C)C)(c1ccccc1)c1ccccc1)O,233.0,0.005252359,1.2085,-8.4945,1.81638,312.8543992064185,0.126529251,-0.2079,-8.1507,137.66722,-0.022,-9.283,2.54364,NaN,NaN,210,NaN,210,NaN,NaN
BVOXLLJCBUDCLC-GOSISDBHSA-N,CCOC(=O)[C@@H](c1oc(cc1c1ccccc1)c1ccccc1)O,CCOC(=O)[C@@H](c1oc(cc1c1ccccc1)c1ccccc1)O,270.7,0.699533915,0.713,-7.8757,3.07612,353.8361826641086,0.416259431,-0.4592,-7.635,108.26532,-0.679,-8.866,3.00516,NaN,NaN,210,NaN,210,NaN,NaN
MDLHUIBGXIFVPJ-GOSISDBHSA-N,CCOC(=O)[C@@H](c1cc(c(o1)c1ccccc1)c1ccccc1)O,CCOC(=O)[C@@H](c1cc(c(o1)c1ccccc1)c1ccccc1)O,275.9,0.423250342,0.6938,-7.847,3.36480,357.3031654337281,0.321555182,-0.3917,-7.543,150.23684,-0.652,-8.823,2.94536,NaN,NaN,210,NaN,210,NaN,NaN
IWOGVVKSIVGRGS-QMMMGPOBSA-N,CCOC(=O)[C@H](c1ccc(s1)C)O,CCOC(=O)[C@H](c1ccc(s1)C)O,232.6,0.204819229,1.412,-8.4682,2.83587,308.2650383030921,0.230371141,-0.2763,-8.2447,67.98275,-0.565,-9.165,3.4581,NaN,NaN,210,NaN,210,NaN,NaN
XWRJHKSGMFZVNP-ZDUSSCGKSA-N,CCOC(=O)[C@H](c1ccc(s1)c1ccccc1)O,CCOC(=O)[C@H](c1ccc(s1)c1ccccc1)O,269.7,0.494439394,0.6413,-8.1054,2.60708,327.6538012830435,0.402021018,-0.4296,-8.008,127.18847,-0.841,-9.207,2.98361,NaN,NaN,210,NaN,210,NaN,NaN