inchikey,smi_pre,smi_post,lambda_sTDA (nm),f1_sTDA,lumo_dft,homo_dft,dmom_dft (D),lambda_z (nm),f1_z,lumo_z,homo_z,dmom_z (D),lumo_mopac,homo_mopac,dmom_mopac (D),lambda_tddft (nm),f1_tddft,lambda_exp_max (nm),epsilon_exp_max ,lambda_exp_min (nm),epsilon_exp_min ,solvent
CCICXOQGAXAMII-UHFFFAOYSA-N,CSc1nnc(s1)N=Nc1c([nH]c2c1cccc2)c1ccccc1,CSc1nnc(s1)N=Nc1c([nH]c2c1cccc2)c1ccccc1,473.7,0.002790674,-0.7189,-7.707,4.45188,553.7480947097082,0.0181673,-1.4967,-7.6628,278.60221,-1.592,-8.406,3.97633,NaN,NaN,509.0,NaN,509.0,NaN,DMSO
OVQZCNNXAPXVNL-UHFFFAOYSA-N,CSc1nnc(s1)N=Nc1c(c2ccccc2)n(c2c1cccc2)C,CSc1nnc(s1)N=Nc1c(c2ccccc2)n(c2c1cccc2)C,472.4,0.017186634,-0.5672,-7.6242,4.95573,540.7073633035484,0.021927179,-1.345,-7.6325,314.07363,-1.366,-8.307,6.50989,NaN,NaN,466.0,NaN,466.0,NaN,DMSO
ZMXDDKWLCZADIW-UHFFFAOYSA-N,O=CN(C)C,O=CN(C)C,NaN,NaN,NaN,NaN,NaN,NaN,NaN,NaN,Nan,NaN,NaN,NaN,NaN,NaN,NaN,469.0,NaN,469.0,NaN,DMSO
HBTFKAHJHPXBFR-UHFFFAOYSA-N,CCc1nnc(s1)N=Nc1c2ccccc2n(c1C)C,CCc1nnc(s1)N=Nc1c2ccccc2n(c1C)C,434.1,0.00164716,-0.3386,-7.7285,4.21461,519.4143209279583,0.015691932,-1.1434,-7.638,127.49012,-1.268,-8.442,5.62714,NaN,NaN,442.0,NaN,442.0,NaN,DMSO
PJJJCYVKFYBGHT-UHFFFAOYSA-N,CCc1nnc(s1)N=Nc1c([nH]c2c1cccc2)c1ccccc1,CCc1nnc(s1)N=Nc1c([nH]c2c1cccc2)c1ccccc1,473.5,0.004839492,-0.6742,-7.7856,5.77226,539.2962088103683,0.017381128,-1.3148,-7.6421,105.83821,-1.399,-8.694,6.54329,NaN,NaN,499.0,NaN,499.0,NaN,DMSO
XMIOWVFILNTHBX-UHFFFAOYSA-N,CCc1nnc(s1)N=Nc1c(c2ccccc2)n(c2c1cccc2)C,CCc1nnc(s1)N=Nc1c(c2ccccc2)n(c2c1cccc2)C,472.2,0.005015792,-0.5272,-7.7056,6.21129,540.000864135469,0.012956227,-1.2976,-7.5835,133.73374,-1.301,-8.484,7.66225,NaN,NaN,450.0,NaN,450.0,NaN,DMSO
HJNVPZCZPNZTOL-UHFFFAOYSA-N,Cc1[nH]c2c(c1N=Nc1n[nH]c(n1)S)cccc2,Cc1[nH]c2c(c1N=Nc1n[nH]c(n1)S)cccc2,401.7,8.5322e-05,0.2073,-7.6507,2.98928,515.955881837302,0.000954018,-0.9469,-7.6418,235.88748,-1.146,-8.612,2.64325,NaN,NaN,388.0,NaN,388.0,NaN,DMSO
RJYBGHMSRZJHKV-UHFFFAOYSA-N,Sc1[nH]nc(n1)N=Nc1c(C)n(c2c1cccc2)C,Sc1[nH]nc(n1)N=Nc1c(C)n(c2c1cccc2)C,400.3,6.3957e-05,0.2569,-7.5269,3.33091,515.3125453262828,0.001624224,-0.8856,-7.5807,270.52939,-1.088,-8.426,3.69672,NaN,NaN,402.0,NaN,402.0,NaN,DMSO
HWRJQOHTMZNRPX-UHFFFAOYSA-N,Sc1[nH]nc(n1)N=Nc1c([nH]c2c1cccc2)c1ccccc1,Sc1[nH]nc(n1)N=Nc1c([nH]c2c1cccc2)c1ccccc1,443.6,0.011564794,-0.2142,-7.6412,1.77615,517.6793252839401,0.001036608,-0.9116,-7.6027,256.83438,-1.185,-8.569,3.34246,NaN,NaN,411.0,NaN,411.0,NaN,DMSO
AADLDEYTCXFUHQ-UHFFFAOYSA-N,Sc1[nH]nc(n1)N=Nc1c(c2ccccc2)n(c2c1cccc2)C,Sc1[nH]nc(n1)N=Nc1c(c2ccccc2)n(c2c1cccc2)C,434.5,0.003531655,-0.0164,-7.532,2.05237,516.6008266895986,0.001716156,-0.805,-7.5772,283.28394,-1.098,-8.439,4.22136,NaN,NaN,394.0,NaN,394.0,NaN,DMSO
RUGJWTYDBUIXNX-UHFFFAOYSA-N,NC(=N)c1ccc(cc1)OCCOCCOc1ccc(cc1)C(=N)N,NC(=N)c1ccc(cc1)OCCOCCOc1ccc(cc1)C(=N)N,250.0,0.02121924,1.1805,-8.4761,6.42895,292.27769543965974,0.005969063,0.1933,-8.6412,10.62385,-0.277,-9.267,7.17585,NaN,NaN,327,NaN,327,NaN,NaN
DEQUKPCANKRTPZ-UHFFFAOYSA-N,O=C(c1cccc(c1O)O)c1ccccc1,O=C(c1cccc(c1O)O)c1ccccc1,312.7,0.094836303,-0.2071,-8.2854,2.96751,365.30406130083577,0.001359632,-0.9677,-8.7733,106.98668,-0.995,-9.042,3.08338,NaN,NaN,327,NaN,327,NaN,NaN
JXMGUJZXXPXJBW-UHFFFAOYSA-N,COC(=O)C1=C(C)NC2=C(C1c1ccccc1Cl)C(=O)C(CC2)(C)C,COC(=O)C1=C(C)NC2=C(C1c1ccccc1Cl)C(=O)C(CC2)(C)C,313.3,0.181211597,0.4997,-7.8678,5.94325,376.27981306677896,0.064648905,-0.6189,-8.0048,99.92204,-0.284,-8.466,6.23311,NaN,NaN,367,NaN,367,NaN,methanol
BVMBYSFPXYKHEB-UHFFFAOYSA-N,COC(=O)C1=C(C)NC2=C(C1c1cccc(c1)Cl)C(=O)C(CC2)(C)C,COC(=O)C1=C(C)NC2=C(C1c1cccc(c1)Cl)C(=O)C(CC2)(C)C,308.7,0.181235706,0.3628,-8.0784,4.20882,371.3213489233413,0.086295825,-0.8601,-8.3062,159.71927,-0.515,-8.69,5.25227,NaN,NaN,362,NaN,362,NaN,methanol
MGNMBRFJARTMCJ-UHFFFAOYSA-N,COC(=O)C1=C(C)NC2=C(C1c1cccc(c1Cl)Cl)C(=O)C(CC2)(C)C,COC(=O)C1=C(C)NC2=C(C1c1cccc(c1Cl)Cl)C(=O)C(CC2)(C)C,312.9,0.180133361,0.3958,-7.9707,5.94426,378.2312336958623,0.063654753,-0.7839,-8.1429,193.07289,-0.411,-8.576,5.88779,NaN,NaN,367,NaN,367,NaN,methanol
URFCJEUYXNAHFI-ZDUSSCGKSA-N,Oc1cc2O[C@@H](CC(=O)c2c(c1)O)c1ccccc1,Oc1cc2O[C@@H](CC(=O)c2c(c1)O)c1ccccc1,280.3,0.062064759,0.3885,-8.4643,1.94831,347.58676312168114,2.1219e-05,-0.8625,-8.9865,95.90620,-0.604,-9.436,2.15809,NaN,NaN,0,NaN,0,NaN,NaN
OQQVFCKUDYMWGV-UHFFFAOYSA-N,OCc1ccc(o1)c1nn(c2c1cccc2)Cc1ccccc1,OCc1ccc(o1)c1nn(c2c1cccc2)Cc1ccccc1,293.2,0.51397649,0.6831,-7.5519,3.01514,365.8430168353605,0.47224234,-0.627,-7.5646,106.68639,-0.615,-8.384,4.14427,NaN,NaN,0,NaN,0,NaN,NaN
PLAZTCDQAHEYBI-UHFFFAOYSA-N,[O-][N+](=O)c1ccccc1C,[O-][N+](=O)c1ccccc1C,318.5,0.011649878,-0.2696,-9.7348,4.20958,437.4883500547059,0.008724219,-2.4196,-9.6531,76.61919,-1.156,-10.263,4.7421,NaN,NaN,1000,NaN,1000,NaN,NaN
LPAGFVYQRIESJQ-UHFFFAOYSA-N,c1ccc2c(c1)NCC2,c1ccc2c(c1)NCC2,265.4,0.052286705,1.8939,-7.5641,1.64847,287.5996251577445,0.03170908,0.8297,-7.9888,11.18992,0.36,-8.309,2.03688,NaN,NaN,409.0,NaN,396.0,NaN,NaN
WBYWAXJHAXSJNI-UHFFFAOYSA-N,OC(=O)C=Cc1ccccc1,OC(=O)C=Cc1ccccc1,261.2,0.52562739,-0.1204,-8.9042,3.01379,297.1104682614514,0.050341653,-0.9361,-8.9591,100.65595,-0.94,-9.81,2.43483,NaN,NaN,215,NaN,215,NaN,NaN
LNTHITQWFMADLM-UHFFFAOYSA-N,OC(=O)c1cc(O)c(c(c1)O)O,OC(=O)c1cc(O)c(c(c1)O)O,265.1,0.016873486,0.7775,-8.4859,4.64290,303.73395003798055,0.024643146,-0.9451,-9.1936,1.84025,-0.934,-9.396,2.07511,NaN,NaN,226,NaN,226,NaN,NaN
WKOLLVMJNQIZCI-UHFFFAOYSA-N,COc1cc(ccc1O)C(=O)O,COc1cc(ccc1O)C(=O)O,259.6,0.098282183,0.8091,-8.3817,4.21559,294.01043017667456,0.077769948,-0.8254,-9.0264,25.39141,-0.699,-9.195,1.78325,NaN,NaN,261,NaN,261,NaN,NaN
NGSWKAQJJWESNS-UHFFFAOYSA-N,OC(=O)C=Cc1ccc(cc1)O,OC(=O)C=Cc1ccc(cc1)O,268.8,0.60572169,0.0921,-8.3527,4.47774,301.88507038106565,0.421453918,-0.9699,-8.6993,52.38166,-0.923,-9.353,2.71779,NaN,NaN,230,NaN,230,NaN,NaN
KSEBMYQBYZTDHS-UHFFFAOYSA-N,COc1cc(C=CC(=O)O)ccc1O,COc1cc(C=CC(=O)O)ccc1O,NaN,NaN,NaN,NaN,NaN,NaN,NaN,NaN,Nan,NaN,NaN,NaN,NaN,NaN,NaN,235,NaN,235,NaN,NaN
KZNIFHPLKGYRTM-UHFFFAOYSA-N,Oc1ccc(cc1)c1cc(=O)c2c(o1)cc(cc2O)O,Oc1ccc(cc1)c1cc(=O)c2c(o1)cc(cc2O)O,283.8,0.421515806,-0.008,-8.3427,7.47241,360.2097571339444,0.00216165,-1.1366,-8.695,59.65183,-1.022,-9.423,4.426,NaN,NaN,224,NaN,224,NaN,NaN
IQPNAANSBPBGFQ-UHFFFAOYSA-N,Oc1cc(O)c2c(c1)oc(cc2=O)c1ccc(c(c1)O)O,Oc1cc(O)c2c(c1)oc(cc2=O)c1ccc(c(c1)O)O,288.4,0.508636585,-0.0102,-8.2337,4.94418,360.41918141134784,0.002716539,-1.1985,-8.6609,21.52473,-1.127,-9.327,3.98873,NaN,NaN,253,NaN,253,NaN,NaN
YCCILVSKPBXVIP-UHFFFAOYSA-N,OCCc1ccc(cc1)O,OCCc1ccc(cc1)O,246.2,0.043574489,1.5136,-8.4279,1.34837,282.0386678924105,0.035064037,0.4775,-8.5255,33.54396,-0.113,-9.157,1.43114,NaN,NaN,225,NaN,225,NaN,NaN
PDURUKZNVHEHGO-UHFFFAOYSA-N,OC(=O)COc1cc2cc(oc2cc1N(CC(=O)O)CC(=O)O)c1ncc(o1)C(=O)O,OC(=O)COc1cc2cc(oc2cc1N(CC(=O)O)CC(=O)O)c1ncc(o1)C(=O)O,301.9,1.259885419,-0.5331,-8.352,5.19717,399.0479510959242,0.65411158,-1.802,-8.4023,78.36279,-1.936,-9.614,6.54857,314.5130590528892,1.0875372428,369,22000.0,369,22000.0,NaN
AFBPFSWMIHJQDM-UHFFFAOYSA-N,CNc1ccccc1,CNc1ccccc1,260.3,0.051502176,1.9449,-7.6261,1.80924,283.58691309584555,0.030052835,0.7876,-8.1001,6.85335,0.407,-8.287,2.10245,NaN,NaN,260,NaN,260,NaN,hexane
PAYRUJLWNCNPSJ-UHFFFAOYSA-N,Nc1ccccc1,Nc1ccccc1,254.0,0.041415455,1.908,-7.8684,1.66405,283.58691309584555,0.032615034,0.7609,-8.1518,11.54965,0.333,-8.46,1.765,NaN,NaN,243,NaN,243,NaN,hexane
NBVXSUQYWXRMNV-UHFFFAOYSA-N,CF,CF,NaN,NaN,NaN,NaN,NaN,NaN,NaN,NaN,Nan,NaN,NaN,NaN,NaN,NaN,NaN,277,NaN,277,NaN,Cyclohexane
LPEPZBJOKDYZAD-UHFFFAOYSA-N,OC(=O)c1ccccc1Nc1cccc(c1)C(F)(F)F,OC(=O)c1ccccc1Nc1cccc(c1)C(F)(F)F,300.7,0.308370205,0.3294,-7.9027,2.77845,351.8280317976835,0.214091903,-0.8929,-8.1938,126.92714,-0.997,-8.791,2.44848,NaN,NaN,287,NaN,287,NaN,Cyclohexane
JXTHEWSKYLZVJC-UHFFFAOYSA-N,OC(=O)c1ccccc1C(=O)Nc1cccc2c1cccc2,OC(=O)c1ccccc1C(=O)Nc1cccc2c1cccc2,300.2,0.174906032,0.1828,-7.8929,4.35986,319.95922169162236,0.158581423,-0.5233,-7.7923,82.25704,-1.071,-8.36,4.00386,NaN,NaN,285,NaN,285,NaN,Cyclohexane
ZBCBWPMODOFKDW-UHFFFAOYSA-N,OCCNCCO,OCCNCCO,NaN,NaN,NaN,NaN,NaN,NaN,NaN,NaN,Nan,NaN,NaN,NaN,NaN,NaN,NaN,455.0,NaN,355.0,NaN,NaN
WUWKQGPEIAHGLN-UHFFFAOYSA-N,CCc1cccc(c1NC(=O)n1cc2c(c1)C(=NC(=O)c1ccc(cc1)N1CCN(CC1)C)N=N2)CC,CCc1cccc(c1NC(=O)n1cc2c(c1)C(=NC(=O)c1ccc(cc1)N1CCN(CC1)C)N=N2)CC,514.1,0.002735343,-1.3283,-7.86,6.65122,452.3319898048291,0.000852242,-1.8627,-8.1874,166.97752,-1.522,-8.426,7.62387,NaN,NaN,435.0,NaN,350.0,NaN,NaN
NQLVIKZJXFGUET-UHFFFAOYSA-N,C[Si](N1CCCC1)(C)C,C[Si](N1CCCC1)(C)C,NaN,NaN,NaN,NaN,NaN,NaN,NaN,NaN,Nan,NaN,NaN,NaN,NaN,NaN,NaN,445.0,NaN,355.0,NaN,NaN
KAHVZNKZQFSBFW-UHFFFAOYSA-N,CN([Si](C)(C)C)C,CN([Si](C)(C)C)C,NaN,NaN,NaN,NaN,NaN,NaN,NaN,NaN,Nan,NaN,NaN,NaN,NaN,NaN,NaN,435.0,NaN,345.0,NaN,NaN
WEHWNAOGRSTTBQ-UHFFFAOYSA-N,CCCNCCC,CCCNCCC,NaN,NaN,NaN,NaN,NaN,NaN,NaN,NaN,Nan,NaN,NaN,NaN,NaN,NaN,NaN,445.0,NaN,365.0,NaN,NaN
ZMANZCXQSJIPKH-UHFFFAOYSA-N,CCN(CC)CC,CCN(CC)CC,NaN,NaN,NaN,NaN,NaN,NaN,NaN,NaN,Nan,NaN,NaN,NaN,NaN,NaN,NaN,444.0,NaN,360.0,NaN,NaN
PAMIQIKDUOTOBW-UHFFFAOYSA-N,CN1CCCCC1,CN1CCCCC1,NaN,NaN,NaN,NaN,NaN,NaN,NaN,NaN,Nan,NaN,NaN,NaN,NaN,NaN,NaN,435.0,NaN,350.0,NaN,NaN
FFUAGWLWBBFQJT-UHFFFAOYSA-N,C[Si](N[Si](C)(C)C)(C)C,C[Si](N[Si](C)(C)C)(C)C,NaN,NaN,NaN,NaN,NaN,NaN,NaN,NaN,Nan,NaN,NaN,NaN,NaN,NaN,NaN,440,NaN,440,NaN,NaN
ZSMNRKGGHXLZEC-UHFFFAOYSA-N,CN([Si](C)(C)C)[Si](C)(C)C,CN([Si](C)(C)C)[Si](C)(C)C,NaN,NaN,NaN,NaN,NaN,NaN,NaN,NaN,Nan,NaN,NaN,NaN,NaN,NaN,NaN,440.0,NaN,355.0,NaN,NaN
XYFCBTPGUUZFHI-UHFFFAOYSA-N,P,P,NaN,NaN,NaN,NaN,NaN,NaN,NaN,NaN,Nan,NaN,NaN,NaN,NaN,NaN,NaN,440,NaN,440,NaN,NaN
YBADLXQNJCMBKR-UHFFFAOYSA-N,OC(=O)Cc1ccc(cc1)[N+](=O)[O-],OC(=O)Cc1ccc(cc1)[N+](=O)[O-],316.0,7.38e-07,-0.441,-9.9966,5.97543,422.5773633452749,6.2652e-05,-2.5144,-9.9131,47.75936,-1.44,-10.669,5.6485,NaN,NaN,545,NaN,545,NaN,NaN
BTJIUGUIPKRLHP-UHFFFAOYSA-N,Oc1ccc(cc1)[N+](=O)[O-],Oc1ccc(cc1)[N+](=O)[O-],312.2,8.1e-07,-0.2623,-9.3525,5.25386,346.9059832274865,0.322074798,-2.5035,-9.7451,44.62288,-1.239,-10.149,5.44947,NaN,NaN,547,NaN,547,NaN,NaN
RWSOTUBLDIXVET-UHFFFAOYSA-N,S,S,NaN,NaN,NaN,NaN,NaN,NaN,NaN,NaN,Nan,NaN,NaN,NaN,NaN,NaN,NaN,503.2,NaN,282.7,NaN,NaN
TYMLOMAKGOJONV-UHFFFAOYSA-N,Nc1ccc(cc1)[N+](=O)[O-],Nc1ccc(cc1)[N+](=O)[O-],311.7,3.1318e-05,-0.035,-8.6119,6.98461,379.0406554738724,0.368926861,-2.2911,-9.0268,75.22877,-0.907,-9.263,7.93169,NaN,NaN,545,NaN,545,NaN,NaN
VVZRKVYGKNFTRR-UHFFFAOYSA-N,c1ccc2c(c1)Oc1c(C2)c2ccccc2cc1,c1ccc2c(c1)Oc1c(C2)c2ccccc2cc1,296.9,0.035108275,0.5797,-7.8036,0.73929,320.6211492255073,0.015177766,-0.1551,-7.8256,33.81865,-0.648,-8.496,1.08996,NaN,NaN,254,NaN,254,NaN,NaN
IKXFBIWFARLERD-UHFFFAOYSA-N,N#CC(=CC1CC(c2c1cccc2)C=C(C#N)C#N)C#N,N#CC(=CC1CC(c2c1cccc2)C=C(C#N)C#N)C#N,246.3,0.219716127,-1.1287,-10.0029,4.32992,278.55357988205725,0.047810737,-1.3963,-9.3069,61.93573,-1.694,-10.334,3.78276,NaN,NaN,0,NaN,0,NaN,NaN
RWCCWEUUXYIKHB-UHFFFAOYSA-N,O=C(c1ccccc1)c1ccccc1,O=C(c1ccccc1)c1ccccc1,305.0,0.001960515,0.083,-9.3177,3.07811,363.3769003678302,0.000843981,-0.6422,-9.1819,37.24827,-0.69,-10.05,3.10418,NaN,NaN,526,NaN,526,NaN,EtOAc
XNBGHWRYLJOQAU-UHFFFAOYSA-N,Brc1ccc(cc1)c1ccc(cc1)c1ccccc1,Brc1ccc(cc1)c1ccc(cc1)c1ccccc1,267.8,0.762150532,0.4363,-8.24,2.12825,283.716701156759,0.020235956,-0.0007,-8.2343,513.48478,-0.598,-9.164,2.24056,NaN,NaN,461,NaN,461,NaN,EtOAc
SBJCJMAYYCXTLV-UHFFFAOYSA-N,CCOc1ccccc1C(=O)C(=O)c1ccccc1OCC,CCOc1ccccc1C(=O)C(=O)c1ccccc1OCC,318.3,0.00109032,0.368,-8.6487,6.44115,362.42092489185524,0.000279201,-0.5034,-8.8793,82.20516,-0.458,-9.145,6.34076,NaN,NaN,476,NaN,476,NaN,EtOAc
UFWIBTONFRDIAS-UHFFFAOYSA-N,c1ccc2c(c1)cccc2,c1ccc2c(c1)cccc2,281.9,0.060580829,0.6759,-8.1793,0.00011,309.6508451685906,4.71e-07,-0.115,-8.0142,0.00194,-0.547,-8.952,0.00044,NaN,NaN,413,NaN,413,NaN,EtOAc
SRIISEYIFDTFRZ-UHFFFAOYSA-N,OC1c2ccccc2C=Cc2c1cccc2,OC1c2ccccc2C=Cc2c1cccc2,279.7,0.360827584,0.3467,-8.2759,1.78889,291.8648738359314,0.0051481,-0.0843,-8.0845,31.85838,-0.502,-9.078,1.84808,NaN,NaN,423,NaN,423,NaN,EtOAc
BSBXLZYWGGAVHD-UHFFFAOYSA-N,c1ccc(cc1)C1=Cc2c(C1)cccc2,c1ccc(cc1)C1=Cc2c(C1)cccc2,298.8,0.702755268,0.3951,-7.6983,0.67263,336.1827505572225,0.706058931,-0.2803,-7.5253,3.72351,-0.677,-8.597,0.79507,NaN,NaN,380,NaN,380,NaN,EtOAc
YRHRIQCWCFGUEQ-UHFFFAOYSA-N,O=c1c2ccccc2sc2c1cccc2,O=c1c2ccccc2sc2c1cccc2,304.4,2.4e-06,-0.1872,-8.1714,2.49092,378.00060489482826,3.6e-08,-0.9732,-8.8947,22.94352,-1.025,-8.584,1.87269,NaN,NaN,635,NaN,635,NaN,EtOAc
JNELGWHKGNBSMD-UHFFFAOYSA-N,O=c1c2ccccc2oc2c1cccc2,O=c1c2ccccc2oc2c1cccc2,299.0,1.1e-08,-0.1448,-8.6639,3.05554,368.23343749778337,4.83e-07,-0.9502,-8.8967,16.07376,-0.916,-9.322,2.58333,NaN,NaN,633,NaN,633,NaN,EtOAc
WURBFLDFSFBTLW-UHFFFAOYSA-N,O=C(C(=O)c1ccccc1)c1ccccc1,O=C(C(=O)c1ccccc1)c1ccccc1,357.1,0.001072786,-0.3032,-9.1804,3.56157,401.63329577422627,0.000529162,-1.0942,-9.5367,48.76367,-0.979,-9.84,3.57109,NaN,NaN,484,NaN,484,NaN,EtOAc
CNKXFRVXYYUTKT-UHFFFAOYSA-N,CCC(c1ccc2c(c1)c(=O)c1c(o2)cccc1)(C)C,CCC(c1ccc2c(c1)c(=O)c1c(o2)cccc1)(C)C,298.4,1.338e-06,-0.0892,-8.4621,2.71511,368.45229838188305,1.48e-07,-0.9073,-8.5658,114.70470,-0.813,-9.086,2.39748,NaN,NaN,642,NaN,642,NaN,EtOAc
ZJBZDLBFSFABHM-UHFFFAOYSA-N,CCC(c1c2c(ccc1C(CC)(C)C)oc1c(c2=O)cccc1)(C)C,CCC(c1c2c(ccc1C(CC)(C)C)oc1c(c2=O)cccc1)(C)C,308.0,0.086046759,-0.0474,-8.2111,2.35055,371.7667118605807,0.043781702,-0.7584,-7.9664,131.15564,-0.681,-8.76,1.90185,NaN,NaN,654,NaN,654,NaN,EtOAc
LPBMPRKJYKSRLL-UHFFFAOYSA-N,O=c1oc2ccccc2cc1C(=O)c1ccccc1,O=c1oc2ccccc2cc1C(=O)c1ccccc1,309.5,0.063176229,-0.5801,-9.0361,4.39970,365.41172533304945,0.014014926,-1.5079,-8.9884,37.36578,-1.521,-9.711,3.9245,NaN,NaN,414,NaN,414,NaN,EtOAc
NIQCNGHVCWTJSM-UHFFFAOYSA-N,COC(=O)c1ccccc1C(=O)OC,COC(=O)c1ccccc1C(=O)OC,245.8,0.035429455,0.3769,-9.6567,0.31813,285.4148213754688,0.004809878,-0.8009,-9.7461,34.69782,-0.875,-10.42,3.4168,NaN,NaN,305,NaN,305,NaN,EtOAc
MJHNUUNSCNRGJE-UHFFFAOYSA-N,COC(=O)c1cc(ccc1C(=O)OC)C(=O)OC,COC(=O)c1cc(ccc1C(=O)OC)C(=O)OC,252.5,0.057192103,-0.1919,-9.8108,2.33003,296.96813989342195,0.000972207,-1.4232,-10.0504,2.29372,-1.39,-10.694,3.54836,NaN,NaN,311,NaN,311,NaN,EtOAc
TXCDCPKCNAJMEE-UHFFFAOYSA-N,c1ccc2c(c1)oc1c2cccc1,c1ccc2c(c1)oc1c2cccc1,262.8,0.180597189,0.6651,-8.3596,0.62989,299.189667966949,0.354952133,-0.1271,-8.0511,25.68893,-0.636,-9.081,0.8728,NaN,NaN,393,NaN,393,NaN,EtOAc
LAXBNTIAOJWAOP-UHFFFAOYSA-N,Clc1ccccc1c1ccccc1,Clc1ccccc1c1ccccc1,241.9,0.069501002,1.0086,-8.7626,1.45459,273.09294802974375,0.011959529,0.2087,-8.7305,87.91936,-0.286,-9.573,1.81192,NaN,NaN,356,NaN,356,NaN,EtOAc
YWPABLWXCWUIIT-UHFFFAOYSA-M,[O-]C(=O)Cc1ccccc1c1ccccc1,[O-]C(=O)Cc1ccccc1c1ccccc1,NaN,NaN,NaN,NaN,NaN,NaN,NaN,NaN,Nan,NaN,NaN,NaN,NaN,NaN,NaN,371,NaN,371,NaN,EtOAc
HQJQYILBCQPYBI-UHFFFAOYSA-N,Brc1ccc(cc1)c1ccc(cc1)Br,Brc1ccc(cc1)c1ccc(cc1)Br,256.7,0.428735048,0.4634,-8.545,0.00644,276.5652429299658,0.008931998,-0.1949,-8.809,0.39729,-0.759,-9.401,0.00402,NaN,NaN,399,NaN,399,NaN,EtOAc
AVXFJPFSWLMKSG-UHFFFAOYSA-N,Brc1ccc2c(c1)Cc1c2ccc(c1)Br,Brc1ccc2c(c1)Cc1c2ccc(c1)Br,273.3,0.482313206,0.3562,-8.2273,0.13872,300.9325204017079,0.424099977,-0.5064,-8.3784,42.03291,-1.01,-9.078,0.08098,NaN,NaN,411,NaN,411,NaN,EtOAc
JRXXLCKWQFKACW-UHFFFAOYSA-N,c1ccc(cc1)C#Cc1ccccc1,c1ccc(cc1)C#Cc1ccccc1,241.4,0.538199209,0.9671,-8.6423,0.00752,332.7541556776803,0.0,0.2991,-8.1633,0.00908,-0.312,-9.358,0.00087,NaN,NaN,406,NaN,406,NaN,EtOAc
DGEZNRSVGBDHLK-UHFFFAOYSA-N,c1ccc2c(n1)c1ncccc1cc2,c1ccc2c(n1)c1ncccc1cc2,286.0,0.03359618,0.2712,-8.5745,3.20722,328.0005248822848,0.003462163,-0.4361,-8.1704,28.38849,-1.015,-9.276,3.66667,NaN,NaN,440,NaN,440,NaN,EtOAc
RDOWQLZANAYVLL-UHFFFAOYSA-N,c1ccc2c(c1)cnc1c2cccc1,c1ccc2c(c1)cnc1c2cccc1,288.6,0.025668256,0.2623,-8.523,2.33625,330.53638604506443,0.071684719,-0.495,-8.1443,22.74581,-0.897,-9.179,2.56447,NaN,NaN,462,NaN,462,NaN,EtOAc
RIPZAKKOEJWWQD-UHFFFAOYSA-N,Brc1ccccc1c1ccc(cc1)c1ccccc1,Brc1ccccc1c1ccc(cc1)c1ccccc1,254.2,0.447193142,0.7389,-8.3918,1.49087,282.23127340201154,0.023720995,0.248,-8.2265,268.95244,-0.242,-9.27,1.69444,NaN,NaN,466,NaN,466,NaN,EtOAc
HQKSINSCHCDMLS-UHFFFAOYSA-N,CCOC(=O)c1ccc2c(c1)cccc2,CCOC(=O)c1ccc2c(c1)cccc2,292.8,0.06198761,0.1777,-8.3831,2.22088,326.3600905646319,0.054934355,-0.8461,-8.3324,50.03869,-0.963,-9.206,2.35902,NaN,NaN,425,NaN,425,NaN,EtOAc
CWFIYYOQYVYBPW-UHFFFAOYSA-N,N#Cc1cc2ccccc2c2c1cccc2,N#Cc1cc2ccccc2c2c1cccc2,300.3,0.089278241,-0.2684,-8.5697,5.00283,336.4564407204984,0.007109924,-0.83,-8.1989,52.80975,-1.305,-9.233,4.48156,NaN,NaN,489,NaN,489,NaN,EtOAc
XCTLDQQOHIEUCJ-UHFFFAOYSA-N,CCOC(=O)c1cccc2c1cccc2,CCOC(=O)c1cccc2c1cccc2,296.1,0.12914125,0.166,-8.3348,1.87799,313.249616992177,0.003369046,-0.614,-8.2586,45.04748,-0.928,-9.152,1.82762,NaN,NaN,443,NaN,443,NaN,EtOAc
YJMNOKOLADGBKA-UHFFFAOYSA-N,N#Cc1cccc2c1cccc2,N#Cc1cccc2c1cccc2,293.5,0.130803465,-0.2528,-8.702,4.70011,314.60085867927853,0.010109611,-0.8016,-8.352,43.03725,-1.253,-9.381,4.29453,NaN,NaN,443,NaN,443,NaN,EtOAc
CNRNYORZJGVOSY-UHFFFAOYSA-N,c1ccc(cc1)c1ncc(o1)c1ccccc1,c1ccc(cc1)c1ncc(o1)c1ccccc1,292.6,0.973395391,0.2703,-7.8834,1.51483,381.6072588658161,0.628446643,-0.6829,-7.4962,24.01546,-0.94,-8.814,2.29784,297.9744598746412,0.8867689712,493,NaN,493,NaN,EtOAc
GVEPBJHOBDJJJI-UHFFFAOYSA-N,c1ccc2c(c1)c1cccc3c1c2ccc3,c1ccc2c(c1)c1cccc3c1c2ccc3,336.6,0.00264507,-0.2256,-8.0736,0.27336,359.1662757980987,0.005678111,-0.7136,-7.8651,1.42927,-1.126,-8.834,0.21655,NaN,NaN,394,NaN,394,NaN,EtOAc
LMZIOPDSTPRPBA-UHFFFAOYSA-N,Cc1cc(C)c(c(c1)C)Nc1c(cc2c3c1cccc3c(=O)n(c2=O)c1c(C)cc(cc1C)C)[N+](=O)[O-],Cc1cc(C)c(c(c1)C)Nc1c(cc2c3c1cccc3c(=O)n(c2=O)c1c(C)cc(cc1C)C)[N+](=O)[O-],348.2,0.32166904,-0.9147,-8.2683,6.87958,476.6789634967461,0.163328582,-2.6265,-8.2014,161.02965,-1.607,-8.961,9.09248,NaN,NaN,442,NaN,442,NaN,NaN
XULZECGQYQSDIW-UHFFFAOYSA-N,CC(c1cccc(c1Nc1c2cccc3c2c(cc1[N+](=O)[O-])c(=O)n(c3=O)c1c(cccc1C(C)C)C(C)C)C(C)C)C,CC(c1cccc(c1Nc1c2cccc3c2c(cc1[N+](=O)[O-])c(=O)n(c3=O)c1c(cccc1C(C)C)C(C)C)C(C)C)C,346.6,0.303060736,-0.9471,-8.353,6.78126,476.3127099712011,0.154947333,-2.6324,-8.3076,154.01725,-1.645,-9.132,8.7261,NaN,NaN,441,NaN,441,NaN,NaN
UXEHONDHCUDAEG-UHFFFAOYSA-N,CCCCNc1c2cccc3c2c(cc1[N+](=O)[O-])c(=O)n(c3=O)CCCC,CNc1c2cccc3c2c(cc1[N+](=O)[O-])c(=O)n(c3=O)C,342.6,0.152073796,-0.9354,-8.4086,6.65257,474.48985229813877,0.095331828,-2.5468,-8.7923,85.61867,-1.752,-9.256,8.10402,NaN,NaN,441,NaN,441,NaN,NaN
OOTHYEVNFHOSOL-UHFFFAOYSA-N,[O-][N+](=O)c1cc2c3c(c1NC(C)(C)C)cccc3c(=O)n(c2=O)C(C)(C)C,[O-][N+](=O)c1cc2c3c(c1NC(C)(C)C)cccc3c(=O)n(c2=O)C(C)(C)C,347.4,0.149425755,-1.0025,-8.5668,5.23340,479.44392268176205,0.162123546,-2.596,-8.6163,141.11207,-1.561,-9.073,8.68149,NaN,NaN,387,NaN,387,NaN,NaN
CUONGYYJJVDODC-UHFFFAOYSA-N,N#CCC#N,N#CCC#N,NaN,NaN,NaN,NaN,NaN,NaN,NaN,NaN,Nan,NaN,NaN,NaN,NaN,NaN,NaN,380.0,88990,265.0,13683,NaN
PMZDQRJGMBOQBF-UHFFFAOYSA-N,O=c1cc[nH]c2c1cccc2,O=c1cc[nH]c2c1cccc2,289.6,8.937e-06,0.5566,-8.2414,6.08635,356.891762825284,2.47e-07,-0.6307,-8.5668,35.36317,-0.532,-8.842,5.79964,NaN,NaN,290,NaN,290,NaN,Dimethylsulfoxide
MPOYBFYHRQBZPM-UHFFFAOYSA-N,O=C1CC=NC=C1,O=C1CC=NC=C1,NaN,NaN,NaN,NaN,NaN,NaN,NaN,NaN,Nan,NaN,NaN,NaN,NaN,NaN,NaN,313,NaN,313,NaN,Dimethylsulfoxide
NNLQZIMIZSCEIX-UHFFFAOYSA-N,CCOC(=O)c1c[nH]c2c(c1=O)cc(cc2[N+](=O)[O-])F,CCOC(=O)c1c[nH]c2c(c1=O)cc(cc2[N+](=O)[O-])F,331.3,0.272140991,-1.4422,-9.0173,0.40089,441.6964674225282,0.003437494,-3.2844,-9.6614,120.57599,-2.239,-9.799,0.96759,NaN,NaN,268,NaN,268,NaN,Dimethylsulfoxide
SVJOYJYMWFBKFW-UHFFFAOYSA-N,Brc1nc2cscc2nc1Br,Brc1nc2cscc2nc1Br,331.0,0.045926818,-0.9459,-8.9674,2.51398,454.3209908593025,0.089024022,-1.93,-8.2973,172.38609,-1.962,-9.429,3.40996,NaN,NaN,360,NaN,360,NaN,NaN
AEDIXYWIVPYNBI-UHFFFAOYSA-N,CCCCCCC(=O)N,CCCCCCC(=O)N,NaN,NaN,NaN,NaN,NaN,NaN,NaN,NaN,Nan,NaN,NaN,NaN,NaN,NaN,NaN,531,NaN,531,NaN,NaN