inchikey,smi_pre,smi_post,lambda_sTDA (nm),f1_sTDA,lumo_dft,homo_dft,dmom_dft (D),lambda_z (nm),f1_z,lumo_z,homo_z,dmom_z (D),lumo_mopac,homo_mopac,dmom_mopac (D),lambda_tddft (nm),f1_tddft,lambda_exp_max (nm),epsilon_exp_max ,lambda_exp_min (nm),epsilon_exp_min ,solvent
ZWQLZAHTIPFORF-UHFFFAOYSA-N,c1ccc(cc1)c1ccc2c(c1)c(c1ccc(cc1)n1c3ccccc3c3c1cccc3)c1c(c2c2ccc(cc2)c2ccccc2)cccc1,c1ccc(cc1)c1ccc2c(c1)c(c1ccc(cc1)n1c3ccccc3c3c1cccc3)c1c(c2c2ccc(cc2)c2ccccc2)cccc1,377.3,0.364407406,-0.2874,-7.3953,2.13957,393.22612878370967,0.372816912,-0.6881,-7.0874,50.40188,-1.193,-8.2,1.58591,NaN,NaN,406,13020,406,13020,NaN
UINJQZXICQEKRH-UHFFFAOYSA-N,CCC(c1cccc(c1)F)O,CCC(c1cccc(c1)F)O,233.6,0.014576796,1.344,-9.1754,2.20344,273.39404279052627,0.003929119,0.2633,-9.1421,78.83691,-0.31,-9.902,0.26544,NaN,NaN,NaN,NaN,NaN,NaN,NaN
YILPWUVCUSKSOW-UHFFFAOYSA-N,ON=C(c1scc(n1)C)C(=O)O,ON=C(c1scc(n1)C)C(=O)O,265.9,0.33593456,0.1129,-8.6924,2.20110,357.2002258873629,0.228322478,-1.6041,-8.8222,87.27439,-1.396,-9.325,2.3301,NaN,NaN,1908.3969465648854,NaN,1908.3969465648854,NaN,NaN
PVANSZHKUJKVDG-UHFFFAOYSA-N,CO[Si](CCCSC(=O)c1ncccc1C(=O)SCCC[Si](OC)(OC)OC)(OC)OC,CO[Si](CCCSC(=O)c1ncccc1C(=O)SCCC[Si](OC)(OC)OC)(OC)OC,305.9,1.763e-05,-0.2015,-9.1179,4.86523,340.5223795811691,0.004153138,-0.6455,-9.0801,81.90989,-1.032,-8.928,3.94627,NaN,NaN,284,111500.0,284,111500.0,chloroform
BQBUNKSQPQHRCT-UHFFFAOYSA-N,Clc1ccc(cc1)Cn1c(C=Cc2ccccc2)nc(c1c1ccco1)c1ccco1,Clc1ccc(cc1)Cn1c(C=Cc2ccccc2)nc(c1c1ccco1)c1ccco1,314.9,1.309919362,0.1557,-7.2073,2.60031,408.24563189168146,0.44098246,-0.5047,-6.8821,162.49918,-0.711,-8.273,3.7392,336.5751635834608,0.9707852979,347,NaN,347,NaN,NaN
QOYGFOVKGYRFHN-UHFFFAOYSA-N,Clc1ccnc2c1cc(n2S(=O)(=O)c1ccccc1)I,Clc1ccnc2c1cc(n2S(=O)(=O)c1ccccc1)I,270.7,0.01220162,0.2174,-8.4988,4.58031,NaN,NaN,NaN,Nan,NaN,-0.871,-8.61,5.20276,NaN,NaN,NaN,NaN,NaN,NaN,NaN
GWNJZSGBZMLRBW-UHFFFAOYSA-N,c1ccc2c(c1)c(c1c(c2c2cccc3c2cccc3)cccc1)c1cccc2c1cccc2,c1ccc2c(c1)c(c1c(c2c2cccc3c2cccc3)cccc1)c1cccc2c1cccc2,372.2,0.326619144,-0.1267,-7.3639,0.18439,392.6035414993783,0.345518798,-0.6367,-7.0778,6.72281,-1.077,-8.222,0.1822,NaN,NaN,414.0,NaN,260.0,NaN,NaN
HXNWDPAZQILIRT-UHFFFAOYSA-N,O=C(c1ccccc1)NN=C(c1ccccn1)c1ccccc1,O=C(c1ccccc1)NN=C(c1ccccn1)c1ccccc1,288.2,0.616433888,-0.0292,-8.2344,5.44302,325.4178435839991,0.000927157,-0.7859,-8.4226,86.79707,-0.915,-8.935,4.9097,NaN,NaN,322,NaN,322,NaN,NaN
CMITUVOWQHIWCW-UHFFFAOYSA-N,CCOC(=O)c1cc2cc3cc(OC)ccc3nc2[nH]c1=O,CCOC(=O)c1cc2cc3cc(OC)ccc3nc2[nH]c1=O,347.4,0.204432983,-0.819,-8.1786,4.78611,378.34665366342284,0.377867219,-1.6995,-8.4801,64.46293,-1.843,-8.86,5.43561,NaN,NaN,382,NaN,382,NaN,acetone
LABDAMKZNFRJIA-UHFFFAOYSA-N,c1cc(nc(c1)c1nc2c(o1)cccc2)c1nc2c(o1)cccc2,c1cc(nc(c1)c1nc2c(o1)cccc2)c1nc2c(o1)cccc2,279.4,1.199915555,-0.1641,-8.3918,0.07343,362.84518116916496,0.686935178,-1.0738,-8.0167,19.09826,-1.46,-9.293,0.66042,286.1988250715345,0.9955155505,356.0,NaN,282.0,NaN,NaN
MHXAPZKOWBGZFS-UHFFFAOYSA-N,CCCCCCC1(CCCCCC)c2cc(ccc2c2c1cc(cc2)N(c1ccccc1)c1ccccc1)c1ccc(s1)C=C(C(=O)O)C#N,C1(C)c2cc(ccc2c2c1cc(cc2)N(c1ccccc1)c1ccccc1)c1ccc(s1)C=C(C(=O)O)C#N,365.7,2.04248694,-1.0391,-7.2159,5.77319,428.5661887504448,0.988248486,-1.6442,-7.2644,554.72306,-1.825,-8.049,5.67847,398.35558735779284,1.7337658783,469,34900.0,469,34900.0,NaN
MDOYUMDYRPHEKG-UHFFFAOYSA-N,Clc1cc(C(=O)Nc2ccc(cc2Cl)[N+](=O)[O-])c(c(c1)C(C)(C)C)O,Clc1cc(C(=O)Nc2ccc(cc2Cl)[N+](=O)[O-])c(c(c1)C(C)(C)C)O,314.4,6.8786e-05,-0.8924,-8.678,4.07826,423.15426076963706,1.677e-06,-2.7085,-9.3174,310.38475,-1.705,-9.602,6.15389,NaN,NaN,557.0,5400,534.0,2200,NaN
FTAZRBPLETWDCS-UHFFFAOYSA-N,O=Cc1cc(N=Nc2ccc(cc2)C)ccc1O,O=Cc1cc(N=Nc2ccc(cc2)C)ccc1O,426.2,9.85e-07,-0.526,-8.2411,3.45748,521.3801446825216,0.003620256,-1.4067,-8.2728,167.89272,-1.243,-9.014,3.7999,NaN,NaN,338,NaN,338,NaN,NaN
JOUDBUYBGJYFFP-UHFFFAOYSA-N,O=C1c2ccccc2SC1=C1Sc2c(C1=O)cccc2,O=C1c2ccccc2SC1=C1Sc2c(C1=O)cccc2,435.6,7.879e-06,-1.2728,-8.1869,3.47099,426.79586370225013,6.889e-06,-1.5168,-9.1325,48.88567,-1.661,-8.348,0.00243,NaN,NaN,510.7,NaN,321.8,NaN,NaN
LQVGCJYFTNIHHI-UHFFFAOYSA-N,CCCOC(CC(=C=O)C=Cc1ccc(c(c1)OC)OCCC)C=Cc1ccc(c(c1)OC)OCCC,CCCOC(CC(=C=O)C=Cc1ccc(c(c1)OC)OCCC)C=Cc1ccc(c(c1)OC)OCCC,315.5,0.00785579,0.9572,-7.2437,2.67296,465.58091778258984,0.000833902,-0.1777,-7.4617,33.33830,-0.182,-8.032,1.50585,NaN,NaN,506.0,42100.0,449.0,32700.0,DMSO
RTSJQXNBTAIWCC-UHFFFAOYSA-N,CCCCCC(=O)NC1=CC(=O)C(=O)c2c1cccc2,C(=O)NC1=CC(=O)C(=O)c2c1cccc2,493.3,4.4311e-05,-1.4296,-9.2002,8.97369,504.2057682208364,0.000614101,-1.945,-9.1024,85.18094,-1.836,-9.807,4.87738,NaN,NaN,274,NaN,274,NaN,ethanol
XKJCHHZQLQNZHY-UHFFFAOYSA-N,O=C1NC(=O)c2c1cccc2,O=C1NC(=O)c2c1cccc2,279.7,0.00183334,-0.4557,-10.0743,2.82626,326.96254853772064,0.001288181,-1.543,-10.0265,62.54036,-1.472,-10.682,3.53645,NaN,NaN,395,NaN,395,NaN,NaN
RWMGQGIAEZVPKY-UHFFFAOYSA-N,OCC(=O)CCc1ccccc1,OCC(=O)CCc1ccccc1,250.6,0.000364286,1.3345,-9.2263,2.88823,327.1350881411706,3.6259e-05,0.0554,-8.9516,73.91492,0.059,-9.729,3.08973,NaN,NaN,NaN,NaN,NaN,NaN,NaN
YMHDMDSRNPBDSM-UHFFFAOYSA-N,c1ccc(cc1)Nc1nc(nc(n1)Nc1ccccc1)Nc1ccc2c(c1)cc1c(c2)cccc1,c1ccc(cc1)Nc1nc(nc(n1)Nc1ccccc1)Nc1ccc2c(c1)cc1c(c2)cccc1,364.4,0.088433439,-0.0167,-7.2157,0.70751,374.3484251373903,0.147071535,-0.6704,-7.2297,107.45618,-1.155,-8.256,0.22029,NaN,NaN,402.0,NaN,401.0,NaN,"1,4-dioxane"
CFBYEGUGFPZCNF-UHFFFAOYSA-N,COc1ccccc1[N+](=O)[O-],COc1ccccc1[N+](=O)[O-],319.9,0.018208865,-0.0263,-9.078,5.37112,435.1849715882894,0.021379778,-2.2753,-9.5235,83.40675,-1.037,-9.734,6.08122,NaN,NaN,327.2,NaN,324.2,NaN,NaN
RPQOZSKWYNULKS-UHFFFAOYSA-N,OC(=O)c1ccc2c3c1c(C(=O)O)c(C(=N)O)c(c3c1c3c2cccc3ccc1)C(=N)O,OC(=O)c1ccc2c3c1c(C(=O)O)c(C(=N)O)c(c3c1c3c2cccc3ccc1)C(=N)O,398.7,0.63261852,-1.2018,-7.7022,4.14738,427.6791942238829,0.609731191,-1.7343,-7.6706,269.59740,-2.206,-8.885,6.3635,NaN,NaN,581,NaN,581,NaN,NaN
LVIHJARVQUMHEN-UHFFFAOYSA-N,CCCCCCCCn1c(=O)c2c(c1c1ccc(s1)c1ccc(s1)c1n(CCCCCCCC)c(=O)c3c1c(=O)n(c3c1ccccc1)CCCCCCCC)c(=O)n(c2c1ccccc1)CCCCCCCC,Cn1c(=O)c2c(c1c1ccc(s1)c1ccc(s1)c1n(C)c(=O)c3c1c(=O)n(c3c1ccccc1)C)c(=O)n(c2c1ccccc1)C,491.7,2.179973853,-1.4566,-7.0377,0.14006,484.1241640199284,1.041677632,-1.6522,-7.4874,8.56386,-1.669,-8.304,0.78895,550.1850144630107,1.7863045738,593,NaN,593,NaN,NaN
MPFHCKQRDSVHLF-UHFFFAOYSA-N,CCN(c1ccc(cc1)C=Cc1ccc(cc1)C=Cc1ccccc1)CC,CCN(c1ccc(cc1)C=Cc1ccc(cc1)C=Cc1ccccc1)CC,349.7,2.211473767,0.0708,-6.8074,3.72181,335.4550822659731,1.191473994,-0.135,-7.1799,68.38685,-0.44,-7.7,4.02387,367.9711313861205,2.1721172477,411,NaN,411,NaN,Benzene
HSGLDJIFDLJIOY-UHFFFAOYSA-N,N#CC(=C1OC(=O)C(=C(c2cc(oc2C)C)C)C1=C(c1ccc(cc1)F)c1ccc(cc1)F)C#N,N#CC(=C1OC(=O)C(=C(c2cc(oc2C)C)C)C1=C(c1ccc(cc1)F)c1ccc(cc1)F)C#N,318.8,0.3009288,-0.9567,-8.6142,8.76851,378.11588412779406,0.17171408,-1.6059,-8.4021,127.53542,-1.597,-9.453,10.18616,NaN,NaN,400,NaN,400,NaN,NaN
NHPNVEXJLPRJTR-UHFFFAOYSA-N,O=C(c1cc(C(=O)CC(=O)c2ccccc2Cl)c(nc1C)C)CC(=O)c1ccccc1Cl,O=C(c1cc(C(=O)CC(=O)c2ccccc2Cl)c(nc1C)C)CC(=O)c1ccccc1Cl,299.1,0.002878966,-0.3402,-9.3857,4.78124,358.0254068885465,0.002478337,-1.1854,-9.0226,178.97107,-0.89,-9.908,5.54629,NaN,NaN,326,46773.51412871981,326,46773.51412871981,NaN
XONJCKUTDZJEHT-UHFFFAOYSA-N,O=Cc1ccc2c(n1)c(Br)cc(c2)C#Cc1ccc(cc1)N(c1ccccc1)c1ccccc1,O=Cc1ccc2c(n1)c(Br)cc(c2)C#Cc1ccc(cc1)N(c1ccccc1)c1ccccc1,345.7,0.021640178,-0.9452,-7.3528,7.67146,387.4506200171989,0.00254036,-1.4633,-7.323,744.89988,-1.537,-8.131,7.19349,NaN,NaN,416.0,23000.0,416.0,23000.0,NaN
RJBSSPCPIINSMB-UHFFFAOYSA-N,CC(c1ccc(cc1)Cn1nc(cc1c1nnc(o1)c1ccccc1)c1ccccc1)(C)C,CC(c1ccc(cc1)Cn1nc(cc1c1nnc(o1)c1ccccc1)c1ccccc1)(C)C,274.5,1.063611763,0.1055,-8.2332,3.22247,367.9056332507527,0.639553321,-1.0465,-7.9685,154.87568,-1.147,-8.892,3.40235,278.1348969406632,0.8568163517,271,NaN,271,NaN,dichloromethane
AROMKHYNFDGTFG-UHFFFAOYSA-N,CCCN1c2ccc(cc2Sc2c1cccc2)C=Cc1cc(=O)oc2c1ccc(c2O)O,CCCN1c2ccc(cc2Sc2c1cccc2)C=Cc1cc(=O)oc2c1ccc(c2O)O,344.7,0.52178196,-0.414,-7.3274,5.45397,343.06640399973344,0.565617613,-1.2213,-7.7254,334.21009,-1.258,-7.828,6.66848,NaN,NaN,427,NaN,427,NaN,chloroform
GFWYFRSTSJFNNT-UHFFFAOYSA-N,CC(=O)c1ccc(cc1)N=Nc1ccc(c2c1cccn2)O,CC(=O)c1ccc(cc1)N=Nc1ccc(c2c1cccn2)O,451.2,0.000997733,-1.0307,-7.9963,1.19175,540.000864135469,0.001267684,-1.7337,-8.0686,60.38744,-1.611,-8.917,2.16447,NaN,NaN,417.0,NaN,402.0,NaN,DMSO
QSQIGGCOCHABAP-UHFFFAOYSA-N,c1ccc2c(c1)cc1c(c2)cc2c(c1)cc1c(c2)cc2c(c1)cccc2,c1ccc2c(c1)cc1c(c2)cc2c(c1)cc1c(c2)cc2c(c1)cccc2,602.1,0.158134829,-1.2782,-6.3901,0.00105,556.7319191984898,0.229821738,-1.5108,-6.4389,0.00156,-1.927,-7.608,0.00039,NaN,NaN,NaN,NaN,NaN,NaN,NaN
DSHQCKHLJVJWAX-UHFFFAOYSA-N,N#Cc1ccccc1c1c(C#N)c(N)nc(c1C#N)N,N#Cc1ccccc1c1c(C#N)c(N)nc(c1C#N)N,275.9,0.2095008,-0.1405,-8.6014,4.13582,325.93112093980983,0.19380812,-0.7118,-8.5936,52.12688,-0.952,-9.425,4.31817,NaN,NaN,493.0,NaN,481.0,NaN,THF
FAJMLEGDOMOWPK-UHFFFAOYSA-N,c1ccc(cc1)N(c1ccccc1)c1ccc(cc1)C=Cc1ccc(cc1)N(c1ccccc1)c1ccccc1,c1ccc(cc1)N(c1ccccc1)c1ccc(cc1)C=Cc1ccc(cc1)N(c1ccccc1)c1ccccc1,353.0,1.77550307,0.2336,-6.8125,0.15305,343.16135733601897,0.973964685,-0.0025,-7.0761,0.11351,-0.528,-7.826,0.07989,NaN,NaN,389.0,53000,335.0,53000,NaN
ONTOFBTZFHZIDA-UHFFFAOYSA-N,O=S(=O)(c1cccc(c1)N1N=C(CC1c1ccccc1)c1cccs1)c1cccc(c1)N1N=C(CC1c1ccccc1)c1cccs1,O=S(=O)(c1cccc(c1)N1N=C(CC1c1ccccc1)c1cccs1)c1cccc(c1)N1N=C(CC1c1ccccc1)c1cccs1,328.5,1.022040122,0.1687,-7.3127,7.96688,365.41172533304945,0.66544511,-0.9228,-7.8656,69.95740,-0.974,-8.248,6.93043,NaN,NaN,370,39100.0,370,39100.0,dichloromethane
SSSWDWWZUIFCGO-UHFFFAOYSA-N,CCNC(=O)N=c1oc2cc(ccc2cc1C#N)N(CC)CC,CCNC(=O)N=c1oc2cc(ccc2cc1C#N)N(CC)CC,328.4,0.874490981,-0.4035,-7.7774,8.90942,400.4657571237198,0.566272144,-1.3763,-7.917,174.11821,-1.205,-8.519,9.66663,NaN,NaN,439.0,NaN,433.0,NaN,NaN
PVQYHGRFYLOTRM-UHFFFAOYSA-N,CN(c1ccc(cc1)C(=Cc1ccc(cc1)C=C(c1ccccc1)C#N)c1ccc(cc1)N(C)C)C,CN(c1ccc(cc1)C(=Cc1ccc(cc1)C=C(c1ccccc1)C#N)c1ccc(cc1)N(C)C)C,301.2,0.779292176,0.495,-7.0609,8.42715,317.58247542393354,0.452360654,0.0177,-7.3832,124.27838,-0.642,-8.065,8.92035,NaN,NaN,324,NaN,324,NaN,NaN
QZDMUAPDAMDUSC-UHFFFAOYSA-N,[O-][N+](=O)c1cc(ccc1N=Nc1ccc(c(c1O)C)O)[N+](=O)[O-],[O-][N+](=O)c1cc(ccc1N=Nc1ccc(c(c1O)C)O)[N+](=O)[O-],420.4,0.030314879,-1.5406,-8.5971,7.28191,530.0735288820165,0.000452602,-2.931,-8.8462,155.06765,-2.438,-9.542,6.48232,NaN,NaN,418.0,30000.0,418.0,29400.0,Acetone
OHWVABGURRPKBX-ZEQRLZLVSA-N,COC(=O)[C@]1(C[C@]1(O[Si](C(C)(C)C)(C)C)c1ccc(cc1)Br)c1ccc(cc1)OC,COC(=O)[C@]1(C[C@]1(O[Si](C(C)(C)C)(C)C)c1ccc(cc1)Br)c1ccc(cc1)OC,245.7,0.027059385,1.0668,-8.2238,1.50533,286.8676501746961,0.022826735,0.0946,-8.344,399.15433,-0.336,-8.769,0.88007,NaN,NaN,NaN,NaN,NaN,NaN,NaN
NCWPYKQOOBBOCA-UHFFFAOYSA-N,CCOC(=O)c1[nH]c(c(c1C)C(=NN)C(=O)CC(=O)Nc1ccccc1)C,CCOC(=O)c1[nH]c(c(c1C)C(=NN)C(=O)CC(=O)Nc1ccccc1)C,315.6,0.002762118,0.4735,-7.9564,1.35591,348.27022024017884,0.002082651,-0.8122,-8.2607,90.05430,-0.569,-8.983,3.56149,NaN,NaN,301.1,NaN,226.0,NaN,NaN
WOPNJKHBRZINGU-UHFFFAOYSA-N,c1ccc2c(c1)oc(c2)C=Cc1ccc(cc1)C=Cc1cc2c(o1)cccc2,c1ccc2c(c1)oc(c2)C=Cc1ccc(cc1)C=Cc1cc2c(o1)cccc2,367.9,2.758177749,-0.546,-7.2702,1.04206,379.9699614020952,1.723147524,-0.6888,-7.2561,17.30584,-1.132,-8.558,0.27409,377.80477499234985,2.5364296833,375,NaN,375,NaN,NaN
NNDYSSCKTIFKTN-UHFFFAOYSA-N,O=C1C(=CC=CC=C2C=C(OC(=C2)c2ccccc2)c2ccccc2)C(=O)c2c1csc2,O=C1C(=CC=CC=C2C=C(OC(=C2)c2ccccc2)c2ccccc2)C(=O)c2c1csc2,419.2,2.934918689,-1.1763,-7.0906,7.55022,482.616576121073,1.5872349,-1.6791,-7.2178,416.76681,-1.43,-8.119,5.57157,472.2128009187974,2.1698925621,613,NaN,613,NaN,dichloromethane
GTWFWRQGIFCNFU-UHFFFAOYSA-N,CCN(c1ccc(cc1)C=C(c1ccc(cc1)C(=Cc1ccc(cc1)N(CC)CC)C#N)C#N)CC,CCN(c1ccc(cc1)C=C(c1ccc(cc1)C(=Cc1ccc(cc1)N(CC)CC)C#N)C#N)CC,329.0,1.508383796,-0.0764,-7.2895,0.76080,352.22783637927176,0.503142522,-0.459,-7.4626,14.44660,-0.641,-7.969,6.53387,NaN,NaN,449,61000.0,449,61000.0,NaN
CDRPUGZCRXZLFL-UHFFFAOYSA-N,Oc1cc(C=Cc2ccc(c(c2)O)O)cc(c1)O,Oc1cc(C=Cc2ccc(c(c2)O)O)cc(c1)O,293.4,1.071869356,0.4215,-7.5467,3.73387,297.324216799769,0.252600815,-0.1486,-8.0227,29.40542,-0.619,-8.849,1.65693,303.11019217983437,0.9795484704,NaN,NaN,NaN,NaN,NaN
KTETXPGPCYZLHT-UHFFFAOYSA-N,CCCCCCCCC1(CCCCCCCC)c2cc3nc([nH]c3cc2c2c1cc1nc([nH]c1c2)c1ccc(cc1)OC)c1ccc(cc1)OC,C1(C)c2cc3nc([nH]c3cc2c2c1cc1nc([nH]c1c2)c1ccc(cc1)OC)c1ccc(cc1)OC,328.4,2.130854733,0.3378,-6.9542,4.08648,394.9799248343538,1.426522521,-0.5111,-6.8527,49.26826,-0.866,-8.137,4.44181,335.5004546319563,2.0877051967,375.0,NaN,373.0,NaN,NaN
QYUQVBHGBPRDKN-UHFFFAOYSA-N,Clc1cccc(c1)C(O)C,Clc1cccc(c1)C(O)C,238.4,0.001633644,1.3431,-9.0894,2.48895,271.35959379624353,0.007547121,0.1699,-9.2301,108.85294,-0.306,-9.798,3.3449,NaN,NaN,NaN,NaN,NaN,NaN,NaN
BPEPEDJYAFGUMH-UHFFFAOYSA-N,c1csc(c1)C#Cc1ccc(cc1)n1c2ccccc2c2c1cccc2,c1csc(c1)C#Cc1ccc(cc1)n1c2ccccc2c2c1cccc2,296.8,1.323617439,0.0566,-7.6178,1.94380,348.27022024017884,0.000753996,-0.1447,-7.597,213.10999,-0.826,-8.245,0.97674,316.87630794397586,1.2223511401,332.0,31500.0,331.0,31500.0,CH 2 Cl 2
KPWMYSMRKZWSQL-UHFFFAOYSA-N,N#CC(=Cc1ccc(s1)C=C1c2ccccc2c2c1cccc2)C(=O)O,N#CC(=Cc1ccc(s1)C=C1c2ccccc2c2c1cccc2)C(=O)O,371.5,1.39351234,-1.3568,-8.1574,6.29630,416.19401948809553,0.658162476,-1.6831,-8.0932,286.43485,-1.816,-9.201,4.42692,407.2800506183544,1.1973122134,439,4273,439,4273,NaN
HJTVOPFXSKSRSA-UHFFFAOYSA-N,CCCCN1c2ccc(cc2Oc2c1cccc2C=C(C(=O)O)C#N)C=C(C(=O)O)C#N,CN1c2ccc(cc2Oc2c1cccc2C=C(C(=O)O)C#N)C=C(C(=O)O)C#N,367.6,0.449748187,-0.9857,-7.7929,9.32466,361.25931936335564,0.10246932,-1.3175,-8.0593,202.47970,-1.613,-8.444,6.88902,NaN,NaN,498.0,NaN,482.0,NaN,NaN
OMCUCGRWSNWGTF-UHFFFAOYSA-N,Cc1cc(C)c(c(c1)C)B(c1c(C)cc(cc1C)C)c1ccc(cc1)C#Cc1cc2c(n1C)cccc2,Cc1cc(C)c(c(c1)C)B(c1c(C)cc(cc1C)C)c1ccc(cc1)C#Cc1cc2c(n1C)cccc2,319.6,1.717371465,-0.3629,-7.5024,2.10882,371.09906736157933,0.819743764,-0.4501,-7.2306,142.14205,-1.294,-8.271,2.9868,NaN,NaN,370.0,39000,325.0,28800,C6H12
ZOYKPLGODAQGNN-UHFFFAOYSA-N,[O-][N+](=O)c1ccc(cc1)C1=C2C=CC(=N2)C(=c2ccc(=C(C3=NC(=C(c4[nH]c1cc4)c1ccccc1)C=C3)c1ccccc1)[nH]2)c1ccccc1,[O-][N+](=O)c1ccc(cc1)C1=C2C=CC(=N2)C(=c2ccc(=C(C3=NC(=C(c4[nH]c1cc4)c1ccccc1)C=C3)c1ccccc1)[nH]2)c1ccccc1,638.4,0.009422853,-1.3373,-6.9866,6.13976,607.7656784583513,0.013396834,-2.3465,-6.9802,308.70129,-1.974,-8.12,6.38427,NaN,NaN,412,218776.16239495517,412,218776.16239495517,CH 2 Cl 2
HLUCICHZHWJHLL-UHFFFAOYSA-N,O=C1C=C2CC3(C(=C2C=C1O)c1ccc(c(c1OC3)O)O)O,O=C1C=C2CC3(C(=C2C=C1O)c1ccc(c(c1OC3)O)O)O,361.1,0.649432701,-0.9689,-7.7457,5.65059,394.4772459608771,0.965599231,-1.7866,-8.0965,35.16663,-1.827,-8.708,4.35271,NaN,NaN,NaN,NaN,NaN,NaN,NaN
CNIIGCLFLJGOGP-UHFFFAOYSA-N,C1CN=C(N1)Cc1cccc2c1cccc2,C1CN=C(N1)Cc1cccc2c1cccc2,288.1,0.080905496,0.5319,-8.2017,2.60776,313.9635310344484,0.004572965,-0.1891,-7.9727,20.51270,-0.617,-8.924,2.7798,NaN,NaN,320,NaN,320,NaN,NaN
GDRMOEYTUHTROD-UHFFFAOYSA-N,O=C(Nc1c2ccccc2cc2c1cccc2)NCC12CC3CC(C1)CC(C2)(C3)CNC(=O)Nc1c2ccccc2cc2c1cccc2,O=C(Nc1c2ccccc2cc2c1cccc2)NCC12CC3CC(C1)CC(C2)(C3)CNC(=O)Nc1c2ccccc2cc2c1cccc2,360.7,0.170244985,-0.5174,-7.6511,6.17711,385.52300499223776,0.010434318,-1.1051,-7.4433,121.63624,-1.422,-8.288,5.86438,NaN,NaN,412.0,NaN,252.0,NaN,DMSO
RMVRSNDYEFQCLF-UHFFFAOYSA-N,Sc1ccccc1,Sc1ccccc1,245.8,0.009079123,1.5414,-8.33,1.17873,268.42216584867646,0.003620959,0.5738,-8.8587,71.15364,-0.46,-8.677,1.64663,NaN,NaN,462,NaN,462,NaN,NaN
FXEVQJMIVVUYLN-UHFFFAOYSA-N,COC(=O)c1c(C(=O)c2ccc(cc2)F)n2c(c1C(=O)OC)cccn2,COC(=O)c1c(C(=O)c2ccc(cc2)F)n2c(c1C(=O)OC)cccn2,322.8,0.07214141,-0.3027,-8.5566,3.72652,386.72550968653667,0.187816455,-1.5194,-8.4661,28.57448,-1.497,-9.605,4.01664,NaN,NaN,446.0,NaN,329.0,NaN,Cyclohexane
BRPQDJPJBCQFSR-UHFFFAOYSA-N,Cc1c(C)c2cccnc2c2c1cccn2,Cc1c(C)c2cccnc2c2c1cccn2,287.9,0.036652271,0.3901,-8.3037,3.90025,337.463795333434,3.824e-06,-0.3577,-7.8591,63.32307,-0.829,-8.857,4.74397,NaN,NaN,240,47100.0,240,47100.0,NaN
ONIVHQWXLAUZLV-UHFFFAOYSA-N,Oc1ccc2c(c1C=NN=Cc1ccc3c4c1ccc1c4c(cc3)ccc1)cccc2,Oc1ccc2c(c1C=NN=Cc1ccc3c4c1ccc1c4c(cc3)ccc1)cccc2,386.0,1.65350916,-0.78,-7.3607,1.41630,393.6006298587418,1.234285465,-1.0572,-7.2836,74.24212,-1.435,-8.358,1.05955,NaN,NaN,416,39300,416,39300,CH 3 CN
HTPQPMPFXUWUOT-UHFFFAOYSA-N,O=C1C=Cc2c(C1=NNc1ccc(cc1)N=Nc1ccccc1)cccc2,O=C1C=Cc2c(C1=NNc1ccc(cc1)N=Nc1ccccc1)cccc2,439.2,3.4997e-05,-1.1631,-7.6935,1.72193,516.3856659954339,0.02471827,-1.794,-7.7867,64.35548,-1.628,-8.493,1.63568,NaN,NaN,520,NaN,520,NaN,NaN
UBSKFIWUZGQYIY-UHFFFAOYSA-N,NCC(=O)CC(=O)Nc1ccc(cc1)C(=O)O,NCC(=O)CC(=O)Nc1ccc(cc1)C(=O)O,263.4,0.011491427,0.4432,-8.7211,4.65019,335.00188707242273,0.000222775,-0.7453,-8.8855,66.31553,-0.762,-9.35,4.82552,NaN,NaN,296,NaN,296,NaN,NaN
ZTKQHJHANLVEBM-UHFFFAOYSA-N,CCNc1cc2oc3cc(=NCC)c(cc3c(c2cc1C)c1ccccc1C(=O)O)C,CCNc1cc2oc3cc(=NCC)c(cc3c(c2cc1C)c1ccccc1C(=O)O)C,377.5,1.037288944,-0.2037,-6.752,7.11081,441.38198079566985,0.823975656,-1.1499,-7.0282,92.67455,-0.941,-7.662,6.62989,410.7068802479112,0.8185863454,495,NaN,495,NaN,NaN
BNJQYQQRWXQJGV-UHFFFAOYSA-N,Oc1ccccc1c1nc2c(o1)c(cc1c2cccc1)c1nc2c(s1)cccc2,Oc1ccccc1c1nc2c(o1)c(cc1c2cccc1)c1nc2c(s1)cccc2,325.2,0.48244308,-0.5149,-7.8293,2.21718,391.8590341514022,0.439880055,-1.0728,-7.5515,81.90416,-1.453,-8.731,2.06803,NaN,NaN,330,22400,330,22400,DMF
BISIQSCKDZYPLR-UHFFFAOYSA-N,COc1ccc2c(c1)c1ccccc1[nH]2,COc1ccc2c(c1)c1ccccc1[nH]2,297.9,0.078706144,0.9024,-7.4375,0.73601,323.887665636112,0.056665377,0.007,-7.7558,33.96461,-0.435,-8.099,0.45403,NaN,NaN,552,58000,552,58000,NaN
VIACOXFLBAHCCT-UHFFFAOYSA-N,COc1ccc(c(c1)[N+](=O)[O-])c1ccc(o1)C=Nn1c(C)nn(c1=S)CN1CCOCC1,COc1ccc(c(c1)[N+](=O)[O-])c1ccc(o1)C=Nn1c(C)nn(c1=S)CN1CCOCC1,330.9,0.555702728,-0.4536,-7.7553,6.30162,550.0629920386143,0.015943059,-2.5619,-8.0162,31.59204,-1.472,-8.279,1.7148,NaN,NaN,261.0,NaN,208.0,NaN,NaN
RRFVYTJFAOUYOF-UHFFFAOYSA-N,COCCSc1cccc2c1C(=O)c1c(C2=O)cccc1Cl,COCCSc1cccc2c1C(=O)c1c(C2=O)cccc1Cl,365.2,0.01103162,-0.8695,-8.2749,4.21726,380.0864451425618,0.000562202,-1.4975,-9.1371,121.73184,-1.379,-8.463,5.48739,NaN,NaN,430,4500,430,4500,NaN
SFDIFJQGOZZVMC-UHFFFAOYSA-N,Brc1ccc(cc1)C1(C=Cc2c(O1)ccc1c2ccc(c1)Br)c1ccc(cc1)Br,Brc1ccc(cc1)C1(C=Cc2c(O1)ccc1c2ccc(c1)Br)c1ccc(cc1)Br,324.7,0.219305457,-0.0581,-7.9887,0.87576,348.0746726712624,0.237722353,-0.8245,-7.9391,121.84154,-1.186,-8.763,0.94371,NaN,NaN,425,NaN,425,NaN,NaN
QZVCZHDFFQACPF-UHFFFAOYSA-N,OCCOc1ccc(cc1OCCCCCC)C=Cc1ccc(cc1)[N+](=O)[O-],OCCOc1ccc(cc1OC)C=Cc1ccc(cc1)[N+](=O)[O-],317.1,0.153295653,-0.8402,-8.1897,4.06607,NaN,NaN,NaN,Nan,NaN,-1.484,-9.108,4.41924,NaN,NaN,397.0,NaN,377.0,NaN,MeOH
XSWCYXIBEZMXMM-UHFFFAOYSA-N,c1ccc(nc1)c1nc2c(s1)cccc2,c1ccc(nc1)c1nc2c(s1)cccc2,279.8,0.557511508,-0.0792,-8.4982,1.50221,339.6827353575443,0.635248548,-0.9203,-8.0931,50.36880,-1.297,-8.876,1.05026,NaN,NaN,300,20753,300,20753,MeOH
VVCSBWRRFULJLX-UHFFFAOYSA-N,COc1ccc2c(c1)C(C)(C)C1(N2C)C=Cc2c(O1)c1c(C)cc(=O)oc1c(c2C)C=O,COc1ccc2c(c1)C(C)(C)C1(N2C)C=Cc2c(O1)c1c(C)cc(=O)oc1c(c2C)C=O,311.3,0.000113085,-0.1094,-7.6414,7.75707,376.50834620559874,5.7438e-05,-1.2856,-8.1265,173.58980,-0.952,-8.378,7.80935,NaN,NaN,NaN,NaN,NaN,NaN,NaN
UCKKBTZZMHZXIK-UHFFFAOYSA-N,COc1c(OC)c2sc1C(=C1C=CC(=N1)C(=c1ccc(=C(C3=NC(=C2c2ccccc2)C=C3)c2ccccc2)[nH]1)c1ccccc1)c1ccccc1,COc1c(OC)c2sc1C(=C1C=CC(=N1)C(=c1ccc(=C(C3=NC(=C2c2ccccc2)C=C3)c2ccccc2)[nH]1)c1ccccc1)c1ccccc1,591.7,0.403254342,-1.3824,-6.7677,2.50366,552.2681443452278,0.243101726,-1.3027,-6.7851,122.71923,-1.625,-7.811,2.23169,NaN,NaN,677.0,309029.5432513592,430.0,3630.780547701014,NaN
LBMNKYHBMVKVLZ-UHFFFAOYSA-N,FC1(F)C(F)(F)C(=C(C1(F)F)c1c2ccccc2cc2c1cccc2)c1c2ccccc2cc2c1cccc2,FC1(F)C(F)(F)C(=C(C1(F)F)c1c2ccccc2cc2c1cccc2)c1c2ccccc2cc2c1cccc2,366.4,0.171653022,-0.4903,-7.5483,4.71016,400.20722532441465,0.201121192,-1.1649,-7.3337,390.03206,-1.379,-8.509,4.77843,NaN,NaN,409.0,NaN,353.0,NaN,NaN