inchikey,smi_pre,smi_post,lambda_sTDA (nm),f1_sTDA,lumo_dft,homo_dft,dmom_dft (D),lambda_z (nm),f1_z,lumo_z,homo_z,dmom_z (D),lumo_mopac,homo_mopac,dmom_mopac (D),lambda_tddft (nm),f1_tddft,lambda_exp_max (nm),epsilon_exp_max ,lambda_exp_min (nm),epsilon_exp_min ,solvent
WGLDQJCRPKJZAS-UHFFFAOYSA-N,COc1ccc2c(c1)cc1c(n2)nc2c(c1)c1cc(OC)c(cc1C2)OC,COc1ccc2c(c1)cc1c(n2)nc2c(c1)c1cc(OC)c(cc1C2)OC,343.5,0.090458446,-0.5524,-7.8266,4.58165,378.11588412779406,0.631189111,-1.1142,-7.7328,16.41274,-1.5,-8.734,5.12473,NaN,NaN,398.0,NaN,393.0,NaN,acetone
CJZGNLQZBRWFJB-UHFFFAOYSA-N,N#Cc1cc2cc3ccccc3nc2nc1N,N#Cc1cc2cc3ccccc3nc2nc1N,355.3,0.097060311,-1.0051,-8.3202,2.68902,382.5492082860341,0.354131914,-1.4968,-8.2102,84.55196,-1.894,-8.974,3.06658,NaN,NaN,387,NaN,387,NaN,acetone
CGUBJXHUDQIJRU-UHFFFAOYSA-N,OC1=C(C(c2ccc(cc2)[N+](=O)[O-])Nc2ccccc2)C(=O)c2c(C1=O)cccc2,OC1=C(C(c2ccc(cc2)[N+](=O)[O-])Nc2ccccc2)C(=O)c2c(C1=O)cccc2,382.5,0.004517661,-1.7484,-7.872,7.27853,420.99897591002946,0.000134102,-2.6397,-8.3627,133.18995,-2.266,-8.526,7.45479,NaN,NaN,476,3801.8939632056126,476,3801.8939632056126,NaN
UYGSJYFJYAPHLX-SGNDLWITSA-N,CC[C@@H]([C@H](C(=O)c1ccccc1)[C@H](c1cccc(c1)C(F)(F)F)C[N+](=O)[O-])c1ccccc1,CC[C@@H]([C@H](C(=O)c1ccccc1)[C@H](c1cccc(c1)C(F)(F)F)C[N+](=O)[O-])c1ccccc1,298.0,0.001872705,-0.1422,-9.3181,4.82009,412.59300634111037,2.9189e-05,-2.4602,-8.8785,302.75726,-0.959,-9.817,6.33244,NaN,NaN,NaN,NaN,NaN,NaN,NaN
KFDPHSKCUJUDAG-UHFFFAOYSA-N,CCN(c1ccc2c(c1)oc1c(c2C#N)c2nc3c(n2c(=N)c1C#N)cccc3)CC,CCN(c1ccc2c(c1)oc1c(c2C#N)c2nc3c(n2c(=N)c1C#N)cccc3)CC,422.4,1.137604902,-1.6861,-7.7394,9.20356,503.59138263811394,0.811462083,-2.2165,-7.6603,142.17292,-2.157,-8.56,11.57379,471.5662293064029,0.8279905274,640.0,NaN,630.0,NaN,Chloroform
MHZDOTAMYOXDTJ-UHFFFAOYSA-N,CCCCCCCCCCCCc1ccc(s1)c1c2sc(cc2c(c2c1cc(s2)Br)c1ccc(s1)CCCCCCCCCCCC)Br,Cc1ccc(s1)c1c2sc(cc2c(c2c1cc(s2)Br)c1ccc(s1)C)Br,323.0,0.625849696,0.0175,-7.5457,0.40722,365.1964606936779,0.000626961,-0.7621,-7.7993,38.42038,-1.259,-8.264,0.07636,NaN,NaN,348,NaN,348,NaN,chloroform
FQVOWPCGHLYSLB-UHFFFAOYSA-N,O=c1c2cccc3c2c2c(c1=O)cccc2c(=O)c3=O,O=c1c2cccc3c2c2c(c1=O)cccc2c(=O)c3=O,471.0,1e-09,-1.773,-9.5849,0.00008,395.86270244413686,0.132828659,-2.726,-9.4682,0.00527,-2.239,-10.17,0.00203,NaN,NaN,290,NaN,290,NaN,DMF
FYEJHRIWATYOPT-UHFFFAOYSA-N,CCN(c1ccc(cc1)C=Cc1ccn2c(c1)nc(c2)c1ccccc1)CC,CCN(c1ccc(cc1)C=Cc1ccn2c(c1)nc(c2)c1ccccc1)CC,334.7,1.813627156,0.2596,-6.8841,6.05545,379.9699614020952,0.681327856,-0.512,-7.15,138.12827,-0.732,-7.919,5.91574,349.2119000936217,1.7621985534,425.0,38904.51449942805,345.0,29512.09226666384,TFA
QYQVQQNMWDLAPG-UHFFFAOYSA-N,CCCCn1c2ccc(cc2c2c1ccc(c2)N(c1ccc(cc1)OC)c1ccccc1)N(c1ccc(cc1)C=C(C(=O)O)C#N)c1ccc(cc1)OC,Cn1c2ccc(cc2c2c1ccc(c2)N(c1ccc(cc1)OC)c1ccccc1)N(c1ccc(cc1)C=C(C(=O)O)C#N)c1ccc(cc1)OC,346.6,1.189278833,-0.433,-6.8513,9.29850,398.1509261576868,0.56991739,-1.2933,-7.188,265.19951,-1.208,-7.629,10.82328,374.5406549534467,0.9997005861,443.0,NaN,424.0,NaN,CH 2 Cl 2
VCBHHHWLVHDPKC-UHFFFAOYSA-N,CCCCN1C(=O)c2c(C1=O)cc1c(c2)c2cc(OCCCCCC)c(cc2c2c1cc(OCCCCCC)c(c2)OCCCCCC)OCCCCCC,CN1C(=O)c2c(C1=O)cc1c(c2)c2cc(OC)c(cc2c2c1cc(OC)c(c2)OC)OC,325.7,0.005241018,-0.4071,-7.7459,1.33743,368.45229838188305,0.05566836,-1.4917,-8.11,35.86965,-1.384,-8.408,6.03353,NaN,NaN,416.0,55000,265.0,55000,NaN
KBGNHIMBLZVVGW-CHWSQXEVSA-N,O=C[C@@H]([C@@H](c1ccc(cc1)Br)C[N+](=O)[O-])C(C)C,O=C[C@@H]([C@@H](c1ccc(cc1)Br)C[N+](=O)[O-])C(C)C,293.8,8.0908e-05,0.4724,-9.1203,5.40555,410.9519337272246,2.526e-05,-2.4488,-9.1862,311.18464,-0.643,-9.747,5.07136,NaN,NaN,NaN,NaN,NaN,NaN,NaN
HUMNYLRZRPPJDN-UHFFFAOYSA-N,O=Cc1ccccc1,O=Cc1ccccc1,305.4,3.4103e-05,0.0846,-9.7076,3.35161,362.1033831936439,8.24e-07,-0.8157,-9.5596,41.88871,-0.712,-10.169,3.08158,NaN,NaN,324,1340,324,1340,NaN
PDYNOPSIAMCAAY-UHFFFAOYSA-N,CCCCCC1(CCCCC)c2cc(ccc2c2c1cc(cc2)C=C(c1cccs1)C#N)C=C(c1cccs1)C#N,C1(C)c2cc(ccc2c2c1cc(cc2)C=C(c1cccs1)C#N)C=C(c1cccs1)C#N,348.4,1.135862491,-0.9642,-8.1568,2.01804,373.6714840431093,0.290959699,-0.9358,-7.7357,145.57500,-1.352,-8.948,6.5006,375.5958588586472,1.0362103275,291,NaN,291,NaN,DMSO
NHZFRQZPHNTGTK-UHFFFAOYSA-N,O=Cc1ccc(cc1)N(c1c2ccccc2cc2c1cccc2)c1ccccc1,O=Cc1ccc(cc1)N(c1c2ccccc2cc2c1cccc2)c1ccccc1,374.4,0.240316831,-0.4458,-7.4697,4.85506,391.9829225592908,0.279032947,-0.8761,-7.2841,91.46148,-1.355,-8.188,4.77833,NaN,NaN,349,NaN,349,NaN,NaN
KTDPOCUIJQPZNJ-UHFFFAOYSA-N,c1ccc2c(c1)c(ccc2)n1cccc1,c1ccc2c(c1)c(ccc2)n1cccc1,288.5,0.119770416,0.411,-8.1242,1.85831,317.1762558339823,0.00707241,-0.247,-7.8333,8.88173,-0.905,-8.837,2.56312,NaN,NaN,356,NaN,356,NaN,CHCl3
YYDMNJLRDGTHGL-UHFFFAOYSA-N,CCc1nccnc1C(=O)C=Cc1ccc(cc1)F,CCc1nccnc1C(=O)C=Cc1ccc(cc1)F,352.5,0.00272992,-0.6541,-8.6934,1.85551,403.8573237964289,0.001021973,-1.3361,-8.8283,80.25623,-1.35,-9.677,1.39374,NaN,NaN,310,NaN,310,NaN,ethanol
KGIGUEBEKRSTEW-UHFFFAOYSA-N,C=Cc1ccccn1,C=Cc1ccccn1,265.0,0.006233643,0.5925,-8.756,1.85780,298.68513227054603,0.003165954,-0.1286,-8.4776,9.40253,-0.575,-9.651,2.17286,NaN,NaN,444.0,43200.0,298.1,31800.0,NaN
OJLCHBHDZIEOMO-UHFFFAOYSA-N,CCOC(=O)c1[nH]c(c(c1C)C(=O)CBr)C,CCOC(=O)c1[nH]c(c(c1C)C(=O)CBr)C,293.1,0.008324369,0.5146,-8.5702,3.08177,349.25126311409485,0.002430957,-0.7913,-8.6184,212.74492,-0.311,-9.397,2.23799,NaN,NaN,523.0,NaN,512.0,NaN,TFA
NSELOQKUTWRZPI-UHFFFAOYSA-N,c1ccc(cc1)c1ccc2c(c1)c(c1c(c2c2ccc3c(c2)cccc3)cccc1)c1cccc2c1ccc1c2cc2c(c1)cccc2,c1ccc(cc1)c1ccc2c(c1)c(c1c(c2c2ccc3c(c2)cccc3)cccc1)c1cccc2c1ccc1c2cc2c(c1)cccc2,380.3,0.431004958,-0.2112,-7.3015,0.18704,397.3852512996912,0.423169939,-0.66,-7.0368,11.36602,-1.138,-8.226,0.16212,NaN,NaN,406,14000,406,14000,NaN
NAKAJDNDPXBBGP-UHFFFAOYSA-N,O=C(c1cccnc1)NC1=CC(=O)C(=O)c2c1cccc2,O=C(c1cccnc1)NC1=CC(=O)C(=O)c2c1cccc2,492.5,5.1095e-05,-1.4053,-9.1387,7.92883,503.59138263811394,0.000753581,-1.8782,-9.0234,94.04083,-1.595,-9.568,7.4651,NaN,NaN,268,NaN,268,NaN,ethanol
YHEXKMHBRGJGOU-UHFFFAOYSA-N,Fc1ccc(cc1)C=CC(=O)c1nnn(c1C)c1ccnc2c1ccc(c2)Cl,Fc1ccc(cc1)C=CC(=O)c1nnn(c1C)c1ccnc2c1ccc(c2)Cl,318.6,0.001974698,-0.6197,-8.6845,1.98649,374.6878162753208,0.001835169,-1.2474,-8.8192,167.24404,-1.718,-9.625,3.13691,NaN,NaN,237,NaN,237,NaN,methanol
ORYYTAYUWRUSKI-UHFFFAOYSA-N,Clc1ccccc1N=NC(=NNc1nc2c(s1)cccc2)c1ccccn1,Clc1ccccc1N=NC(=NNc1nc2c(s1)cccc2)c1ccccn1,486.5,0.004046412,-0.9167,-7.759,3.51254,540.7073633035484,0.001539892,-1.4738,-7.7117,55.84991,-1.381,-8.677,3.19064,NaN,NaN,505,NaN,505,NaN,NaN
WEKATNVWFXTHBO-UHFFFAOYSA-N,N#Cc1c(NC(=O)c2ccccc2)nc(cc1c1cccc(c1)[N+](=O)[O-])c1ccccc1NC(=O)OC(C)(C)C,N#Cc1c(NC(=O)c2ccccc2)nc(cc1c1cccc(c1)[N+](=O)[O-])c1ccccc1NC(=O)OC(C)(C)C,316.7,5.1488e-05,-0.678,-8.4206,6.44492,424.0225663662916,8.7393e-05,-2.476,-8.4921,229.87080,-1.473,-9.021,8.207,NaN,NaN,NaN,NaN,NaN,NaN,NaN
BILPGESWFVIYDB-UHFFFAOYSA-N,COc1ccc(cc1)c1sc(c(c1)C)C1=C(c2sc(cc2C)c2ccc(cc2)OC)C(C(C1(F)F)(F)F)(F)F,COc1ccc(cc1)c1sc(c(c1)C)C1=C(c2sc(cc2C)c2ccc(cc2)OC)C(C(C1(F)F)(F)F)(F)F,337.2,1.218896728,-0.2812,-7.6058,4.92541,367.7964948249886,0.424199182,-0.7006,-7.7837,466.73999,-1.217,-8.791,4.71651,370.67744860451876,1.0378442711,440.0,NaN,385.0,NaN,NaN
KMXDPSVRRIXWGR-UHFFFAOYSA-N,CC(C1=CC(=CC=Cc2cccnn2)C=C(O1)C(C)(C)C)(C)C,CC(C1=CC(=CC=Cc2cccnn2)C=C(O1)C(C)(C)C)(C)C,364.8,0.010581795,0.1267,-6.8038,3.61124,398.1509261576868,1.094844079,-0.6646,-6.938,144.03221,-0.818,-7.86,4.50257,NaN,NaN,410,NaN,410,NaN,dichloromethane
CLYVDMAATCIVBF-UHFFFAOYSA-N,O=C1OC(=O)c2c3c1ccc1c3c(cc2)c2c3c1ccc1c3c(cc2)C(=O)OC1=O,O=C1OC(=O)c2c3c1ccc1c3c(cc2)c2c3c1ccc1c3c(cc2)C(=O)OC1=O,431.6,0.94263392,-2.4716,-8.4806,0.00198,450.0333880417556,0.969830672,-2.9032,-8.5398,0.00212,-3.097,-9.592,0.00106,NaN,NaN,500.0,NaN,236.0,NaN,NaN
AFWWHZBUQWEDLS-UHFFFAOYSA-N,CCOC(=O)c1ccc(cn1)C(=O)OCC,CCOC(=O)c1ccc(cn1)C(=O)OCC,291.1,0.003309224,-0.2777,-9.7749,2.50261,314.6807066129535,0.004865754,-1.5374,-9.9126,38.08853,-1.457,-10.668,2.38501,NaN,NaN,513,NaN,513,NaN,acetonitrile
GNJPLTOJVUBCOK-UHFFFAOYSA-N,CCn1c2ccccc2c2c1ccc(c2)C=CC(=O)c1c(=O)oc2c(c1O)cccc2,CCn1c2ccccc2c2c1ccc(c2)C=CC(=O)c1c(=O)oc2c(c1O)cccc2,333.6,1.397172779,-0.6831,-7.6474,2.22151,379.5047395332221,1.04704741,-1.4848,-7.7035,213.58813,-1.326,-8.327,1.29887,NaN,NaN,467.0,NaN,346.0,NaN,MeOH
MYJCHZLRTFGWNK-UHFFFAOYSA-N,CC(C(=O)Nc1ccc(cc1)S(=O)(=O)N)N1CCC(CC1)C,CC(C(=O)Nc1ccc(cc1)S(=O)(=O)N)N1CCC(CC1)C,253.1,0.253176393,0.7869,-8.655,6.61354,304.5546509592328,0.000641302,-0.4285,-9.1554,385.44859,-0.484,-9.213,7.68037,NaN,NaN,270.0,NaN,270.0,NaN,NaN
OZHFNNADDSMZGB-UHFFFAOYSA-N,OCCC#Cc1cc(C#Cc2ccccc2)c2c(c1)c(C#Cc1ccc(cc1)Cl)nc(n2)c1ccccc1,OCCC#Cc1cc(C#Cc2ccccc2)c2c(c1)c(C#Cc1ccc(cc1)Cl)nc(n2)c1ccccc1,357.5,0.929060768,-1.034,-7.9268,1.54241,394.8541350493747,0.522834843,-1.1229,-7.4954,369.57144,-1.668,-8.797,2.06521,NaN,NaN,401.0,70870.0,270.0,18350.0,NaN
QWJKWBUXOXUZJO-UHFFFAOYSA-N,Clc1ccc(cc1)c1cc(n(n1)Cc1ccc(nc1)Cl)c1nnc(o1)COc1ccc(cc1)[N+](=O)[O-],Clc1ccc(cc1)c1cc(n(n1)Cc1ccc(nc1)Cl)c1nnc(o1)COc1ccc(cc1)[N+](=O)[O-],313.3,2.9e-07,-0.5191,-8.6261,2.38546,423.4433005652448,3.6042e-05,-2.6502,-8.6816,101.85242,-1.626,-9.414,2.30077,NaN,NaN,263,43050,263,43050,DCM
XOVOFPKDNKWYBH-UHFFFAOYSA-N,CN(c1ccc(cc1)C=c1oc(=Cc2ccccc2)c2c1cccc2)C,CN(c1ccc(cc1)C=c1oc(=Cc2ccccc2)c2c1cccc2)C,366.9,0.859013542,0.0749,-6.6532,1.84491,372.10143579082734,0.359727522,-0.4065,-7.1323,42.03404,-0.954,-7.779,1.33905,385.23549903442535,0.6997783915,404,38000.0,404,38000.0,NaN
AEPZSCGBLCRFES-UHFFFAOYSA-N,CCCCCCC1(CCCCCC)c2cc(ccc2c2c1cc(cc2)c1ccc(s1)n1c2ccccc2c2c1cccc2)c1ccc(s1)n1c2ccccc2c2c1cccc2,C1(C)c2cc(ccc2c2c1cc(cc2)c1ccc(s1)n1c2ccccc2c2c1cccc2)c1ccc(s1)n1c2ccccc2c2c1cccc2,320.4,1.935736824,-0.1269,-7.6707,2.09178,369.66069888343367,1.223246669,-0.4167,-7.2833,22.03530,-1.086,-8.226,0.49012,328.4436488628558,1.9166056166,371.0,NaN,292.0,NaN,NaN
SRAQJPPNRAFZRE-UHFFFAOYSA-N,CN1c2c(cccc2Sc2c1cccc2)C=Nc1ccc2c(c1)Sc1c(N2C)cccc1,CN1c2c(cccc2Sc2c1cccc2)C=Nc1ccc2c(c1)Sc1c(N2C)cccc1,332.9,0.477264181,0.0635,-7.2305,1.92279,346.5181621171148,0.04692692,-0.2993,-7.5451,115.56762,-0.662,-7.694,4.41202,NaN,NaN,403.0,6993,288.0,18965,DCM
FQDXULDQPJSQGJ-UHFFFAOYSA-N,CCCCCCn1c2ccc(cc2c2c1cccc2)C(c1ccccc1N(c1ccccc1)c1ccccc1)c1ccc2c(c1)c1ccccc1n2CCCCCC,Cn1c2ccc(cc2c2c1cccc2)C(c1ccccc1N(c1ccccc1)c1ccccc1)c1ccc2c(c1)c1ccccc1n2C,290.8,0.042689472,0.8111,-7.226,1.64545,331.95233843508345,0.03193897,0.0586,-7.355,4.46413,-0.25,-7.898,3.52602,NaN,NaN,273,NaN,273,NaN,NaN
UATJOMSPNYCXIX-UHFFFAOYSA-N,[O-][N+](=O)c1cc(cc(c1)[N+](=O)[O-])[N+](=O)[O-],[O-][N+](=O)c1cc(cc(c1)[N+](=O)[O-])[N+](=O)[O-],315.8,7.271e-06,-1.7111,-11.6549,0.00485,309.5735291023812,2.006e-06,-3.6502,-11.7557,0.03807,-2.719,-11.945,0.00669,NaN,NaN,323,NaN,323,NaN,NaN
PAUSGZKRLKVMMM-UHFFFAOYSA-N,COC(=O)c1n2nc(ccc2c(c1C(=O)OC)C(=O)OC)c1ccc(cc1)Br,COC(=O)c1n2nc(ccc2c(c1C(=O)OC)C(=O)OC)c1ccc(cc1)Br,314.2,0.05342099,-0.3212,-8.5444,2.38662,371.09906736157933,0.243913217,-1.5558,-8.6315,334.67991,-1.553,-9.567,1.11097,NaN,NaN,350.0,NaN,227.0,NaN,acetonitrile
SOGGEPMYGNUETR-UHFFFAOYSA-N,O=C(c1ccc(cc1)OCc1ccccc1)CC(=O)c1ccc(cc1)C(C)(C)C,O=C(c1ccc(cc1)OCc1ccccc1)CC(=O)c1ccc(cc1)C(C)(C)C,298.5,0.015720563,0.0568,-8.6633,1.32700,359.68725966203556,0.002773476,-0.9348,-8.9293,130.94939,-0.533,-9.251,1.22708,NaN,NaN,364,NaN,364,NaN,NaN
XYLNQBVNOATGBP-UHFFFAOYSA-N,COc1ccc(cc1)C#Cc1c2ccccc2c(c2c1cc1c3ccccc3C(c1c2)(C)C)C#Cc1ccc(cc1)OC,COc1ccc(cc1)C#Cc1c2ccccc2c(c2c1cc1c3ccccc3C(c1c2)(C)C)C#Cc1ccc(cc1)OC,445.4,1.142492334,-0.7235,-6.7193,0.99989,447.1121471529162,0.553918787,-0.9304,-6.7384,75.06951,-1.395,-7.947,0.75116,NaN,NaN,486,NaN,486,NaN,dichloromethane
PAZRQLGJYYJRND-UHFFFAOYSA-N,CCN(c1ccc2c(c1)oc(=NC(=O)Nc1ccc(cc1)C)c(c2)C#N)CC,CCN(c1ccc2c(c1)oc(=NC(=O)Nc1ccc(cc1)C)c(c2)C#N)CC,327.8,1.01773475,-0.5396,-7.6797,9.88715,405.17711897223415,0.575290147,-1.4381,-7.8341,162.32844,-1.323,-8.333,10.86564,357.2619669468633,0.825195293,442,NaN,442,NaN,NaN
JHQDCRAFLFDRKS-UHFFFAOYSA-N,O=C1OC(C(=C1Br)NCc1ccccc1Cl)OCc1ccccc1,O=C1OC(C(=C1Br)NCc1ccccc1Cl)OCc1ccccc1,234.6,0.052973083,0.9436,-8.3772,7.66258,321.2025865427556,8.77e-06,-0.6984,-8.9081,423.63075,-0.783,-8.793,8.70167,NaN,NaN,274,NaN,274,NaN,NaN
HJZHHRVYZHOMDE-UHFFFAOYSA-N,CC(Cn1cnc2c1cc([N+](=O)[O-])c1c2c(on1)c1ccc(cc1)[N+](=O)[O-])C,CC(Cn1cnc2c1cc([N+](=O)[O-])c1c2c(on1)c1ccc(cc1)[N+](=O)[O-])C,352.7,0.721585191,-1.3449,-8.5026,9.41369,512.3313983698498,0.499900741,-2.9355,-8.4413,230.51767,-2.227,-9.396,9.29377,NaN,NaN,425,NaN,425,NaN,NaN
NZBSAAMEZYOGBA-UHFFFAOYSA-N,O=c1c2cccc3c2c(c2n1c1ccccc1n2)ccc3,O=c1c2cccc3c2c(c2n1c1ccccc1n2)ccc3,342.3,0.437871927,-0.9182,-8.1163,3.71336,387.2086146330533,0.449716833,-1.5089,-7.8296,31.55090,-1.738,-8.934,4.02264,NaN,NaN,605.0,NaN,435.0,NaN,Ethanol
BQACMKLZOOFTFQ-UHFFFAOYSA-N,C=CCCCCCCCCCCc1c2ccccc2cc2c1cccc2,C=Cc1c2ccccc2cc2c1cccc2,367.0,0.166060388,-0.1471,-7.3587,0.13030,371.9897941959306,0.200613156,-0.6531,-7.2427,7.25060,-1.049,-8.273,0.35074,NaN,NaN,371.0,NaN,368.0,NaN,Acetonitrile
PFTAWBLQPZVEMU-DZGCQCFKSA-N,Oc1cc2O[C@H](c3ccc(c(c3)O)O)[C@H](Cc2c(c1)O)O,Oc1cc2O[C@H](c3ccc(c(c3)O)O)[C@H](Cc2c(c1)O)O,250.2,0.047033349,1.7439,-8.0969,3.39089,294.9897654187572,0.00670236,0.3067,-8.4766,38.31200,-0.162,-8.981,2.85288,NaN,NaN,293,NaN,293,NaN,NaN
YMNXLEXNFSYEKY-UHFFFAOYSA-N,c1ccc(cc1)Cn1c2ccc(cc2c2c1ccc(c2)C#Cc1ccncc1)C#Cc1ccncc1,c1ccc(cc1)Cn1c2ccc(cc2c2c1ccc(c2)C#Cc1ccncc1)C#Cc1ccncc1,300.5,0.015881523,-0.0656,-7.7335,6.99249,345.74511546431586,0.002221218,-0.214,-7.6498,86.29150,-0.748,-8.492,6.95104,NaN,NaN,351.0,42200,311.0,32700,NaN
MGPHNOBSFGNBIH-UHFFFAOYSA-N,CCCCCCCCCCCCOc1cc2nc(C=Cc3ccc(cc3)c3cc(nc(c3)c3ccccn3)c3ccccn3)c(nc2cc1OCCCCCCCCCCCC)C=Cc1ccc(cc1)N(C)C,COc1cc2nc(C=Cc3ccc(cc3)c3cc(nc(c3)c3ccccn3)c3ccccn3)c(nc2cc1OC)C=Cc1ccc(cc1)N(C)C,354.4,1.087482055,-0.4384,-7.0184,4.72844,395.9891357569584,0.730307787,-0.8883,-7.3435,168.86212,-0.921,-7.999,2.72577,383.82822428716315,0.9167929683,603.0,NaN,443.0,NaN,NaN
ONJWMUDXROAENX-UHFFFAOYSA-N,CCCCn1c2cc(ccc2c2c1cc(cc2)N(c1ccc2c(c1)C(CCC)(CCC)c1c2cccc1)c1ccccc1)c1ccc(s1)C=O,Cn1c2cc(ccc2c2c1cc(cc2)N(c1ccc2c(c1)C(C)(C)c1c2cccc1)c1ccccc1)c1ccc(s1)C=O,341.5,1.228999767,-0.3286,-7.0248,4.77301,376.6227169061472,1.008214639,-1.0864,-7.1119,416.21081,-1.191,-7.893,4.21516,NaN,NaN,422.0,32900.0,253.0,31000.0,NaN
PIXAWFULHGHYAN-UHFFFAOYSA-N,COC1OC(=O)C(=C1Nc1cccc2c1cccc2)Br,COC1OC(=O)C(=C1Nc1cccc2c1cccc2)Br,289.5,0.143442961,0.0304,-8.511,7.68160,323.80307758031773,0.004786884,-0.6663,-8.3542,375.14158,-1.188,-8.898,8.0128,NaN,NaN,296,NaN,296,NaN,NaN
ABIUHPWEYMSGSR-UHFFFAOYSA-N,Cc1cc(cc(c1O)Br)C1(OS(=O)(=O)c2c1cccc2)c1cc(C)c(c(c1)Br)O,Cc1cc(cc(c1O)Br)C1(OS(=O)(=O)c2c1cccc2)c1cc(C)c(c(c1)Br)O,248.1,0.030350213,0.4622,-8.6464,9.54707,294.3594454071787,0.02447499,-0.8002,-8.7186,391.82313,-0.921,-9.204,3.1672,NaN,NaN,589.0,NaN,432.0,NaN,NaN
CFFNZOFWRUDGMV-MRXNPFEDSA-N,COc1ccc(cc1)C#C[C@H](c1ccccc1)O,COc1ccc(cc1)C#C[C@H](c1ccccc1)O,254.5,0.118060649,1.0743,-8.144,3.37877,330.3602408886322,0.002009373,0.1915,-8.0586,46.68317,-0.316,-8.899,3.87394,NaN,NaN,NaN,NaN,NaN,NaN,NaN
YOFDNUUYWCBROV-UHFFFAOYSA-N,[O-][N+](=O)c1ccc(cc1)C=CC=CC=Cc1ccc2c(c1)c(=C1SC=CS1)c1c(c2=C2SC=CS2)cccc1,[O-][N+](=O)c1ccc(cc1)C=CC=CC=Cc1ccc2c(c1)c(=C1SC=CS1)c1c(c2=C2SC=CS2)cccc1,384.7,2.622220135,-1.0003,-6.8526,7.81788,423.15426076963706,0.096255637,-2.3965,-7.6845,198.67075,-1.491,-7.881,7.05174,413.03282366992954,2.2065108778,490,NaN,490,NaN,NaN
SPSSULHKWOKEEL-UHFFFAOYSA-N,[O-][N+](=O)c1cc([N+](=O)[O-])c(c(c1)[N+](=O)[O-])C,[O-][N+](=O)c1cc([N+](=O)[O-])c(c(c1)[N+](=O)[O-])C,317.3,0.002807421,-1.5107,-11.0143,1.54777,439.19305138329315,0.009059308,-3.4923,-11.2178,35.39727,-2.492,-11.688,1.76348,NaN,NaN,619.0,NaN,386.0,NaN,NaN
VYNABXPWCQGLHT-UHFFFAOYSA-N,[O-][N+](=O)c1ccc2c(c1)nc1c(n2)c2c3c1cccc3ccc2,[O-][N+](=O)c1ccc2c(c1)nc1c(n2)c2c3c1cccc3ccc2,329.7,0.006655633,-1.0959,-8.6915,7.12906,394.9799248343538,0.287135196,-2.3595,-8.5842,203.98936,-2.01,-9.535,7.52416,NaN,NaN,348,NaN,348,NaN,NaN
JSLNISKDKXBVHP-UHFFFAOYSA-N,CCN(c1ccc(cc1)C(=C)c1ccc(cc1)c1ccc(cc1)C(=C)c1ccc(cc1)N(CC)CC)CC,CCN(c1ccc(cc1)C(=C)c1ccc(cc1)c1ccc(cc1)C(=C)c1ccc(cc1)N(CC)CC)CC,275.9,0.971286595,0.6693,-7.109,1.33561,303.288156569236,0.067883426,0.1893,-7.4408,25.39109,-0.107,-7.844,1.80916,284.2435475578061,0.3556887324,487.0,NaN,400.0,NaN,NaN
PYTJKXZQGURXFB-UHFFFAOYSA-N,Clc1cc(C=CC(=O)c2nnn(c2C)c2ccnc3c2ccc(c3)Cl)cc(c1)Cl,Clc1cc(C=CC(=O)c2nnn(c2C)c2ccnc3c2ccc(c3)Cl)cc(c1)Cl,324.4,9.0795e-05,-0.8207,-9.11,2.52332,374.8010834507366,0.000796902,-1.3772,-8.9958,247.60095,-1.764,-9.934,3.76933,NaN,NaN,236,NaN,236,NaN,methanol
QZNWPBXZJIVKNX-UHFFFAOYSA-N,COc1ccc(cc1)C(=CC=C(C(=O)C(F)(F)F)C(=O)C(F)(F)F)c1ccc(cc1)OC,COc1ccc(cc1)C(=CC=C(C(=O)C(F)(F)F)C(=O)C(F)(F)F)c1ccc(cc1)OC,366.6,0.433413558,-1.0305,-8.0681,7.06978,446.3074096670398,0.199111715,-1.8964,-8.2296,392.62602,-1.638,-9.037,7.46263,NaN,NaN,447,NaN,447,NaN,NaN
KWOKMZBSAZNOBW-YFKPBYRVSA-N,[O-][N+](=O)C[C@@H](c1ccco1)O,[O-][N+](=O)C[C@@H](c1ccco1)O,296.5,0.000170026,0.3638,-9.0583,2.82146,429.90360057386846,0.000341317,-2.5794,-8.6375,55.90493,-0.253,-9.942,3.64625,NaN,NaN,NaN,NaN,NaN,NaN,NaN
GSFARCLCIOLEPT-UHFFFAOYSA-N,OCCOc1ccc2c3c1cccc3c(=O)n(c2=O)CC(C)C,OCCOc1ccc2c3c1cccc3c(=O)n(c2=O)CC(C)C,322.4,0.282205531,-0.6136,-8.4255,4.13806,338.93985348688807,0.362801363,-1.5621,-8.6527,91.26603,-1.466,-9.269,4.34523,NaN,NaN,363.0,NaN,361.0,NaN,Acetone
GABNYJQVUGHTQO-UHFFFAOYSA-N,COc1ccc2c(c1)sc(n2)N=Nc1c(N)nn2c1nc(N)c(c2N)N=Nc1sc2c(n1)ccc(c2)C,COc1ccc2c(c1)sc(n2)N=Nc1c(N)nn2c1nc(N)c(c2N)N=Nc1sc2c(n1)ccc(c2)C,439.8,0.000307836,-1.1423,-7.3074,3.98658,538.1258611349986,0.00912315,-2.0575,-7.4432,107.52903,-1.779,-8.307,5.65609,NaN,NaN,540,NaN,540,NaN,NaN
NFHFXJDPAATBQI-UHFFFAOYSA-N,CCC(CCc1ccccc1)O,CCC(CCc1ccccc1)O,234.6,0.001456412,1.84,-8.8531,1.51801,270.9444895225168,0.009665642,0.6939,-8.7035,32.30050,0.342,-9.425,2.00811,NaN,NaN,NaN,NaN,NaN,NaN,NaN
HGGXAWFQOUWLOZ-UHFFFAOYSA-N,CCC1=C(C)C2=C(c3cccc(c3)O)c3[nH]c(c(c3C)CC)C=C3N=C(C=c4[nH]c(=CC1=N2)c(C)c4CC)C(=C3C)CC,CCC1=C(C)C2=C(c3cccc(c3)O)c3[nH]c(c(c3C)CC)C=C3N=C(C=c4[nH]c(=CC1=N2)c(C)c4CC)C(=C3C)CC,627.4,0.00422829,-0.7679,-6.5648,1.15313,590.9637674237543,0.055925043,-1.14,-6.4319,122.15384,-1.388,-7.553,3.2149,NaN,NaN,822.0,124700.0,407.0,1000.0,PhCN
IGUGKNZTFROFRO-UHFFFAOYSA-N,Cc1ccc(cc1)N(c1ccccc1)c1ccc(cc1)C=CC(=O)c1cc(sc1C)C,Cc1ccc(cc1)N(c1ccccc1)c1ccc(cc1)C=CC(=O)c1cc(sc1C)C,335.2,0.84089873,-0.1673,-7.232,4.46318,380.7868501397533,0.049700685,-0.7831,-7.3027,283.62998,-0.734,-7.951,3.12584,354.0584642447868,0.1402786251,415,NaN,415,NaN,NaN
JQIABZVSWBWMHI-YGHZMKOFSA-N,O=NN1C(c2ccccc2)C2CCC[C@@](C1c1ccccc1)(C2)C,O=NN1C(c2ccccc2)C2CCC[C@@](C1c1ccccc1)(C2)C,423.3,0.004588497,1.1429,-8.314,3.86881,585.9366654324369,0.002043036,-1.0302,-8.3871,93.08581,0.134,-9.12,4.35951,NaN,NaN,425,NaN,425,NaN,MeOH
IQUPABOKLQSFBK-UHFFFAOYSA-N,[O-][N+](=O)c1ccccc1O,[O-][N+](=O)c1ccccc1O,303.5,4.1564e-05,-0.7313,-9.2241,3.44009,428.418100917428,3.492e-06,-2.7228,-9.5961,77.92728,-1.448,-9.997,4.08221,NaN,NaN,346.0,1752,305.0,1158,NaN
RPUSXEGEIWCCFM-UHFFFAOYSA-N,O=c1oc(c(c2c1ccs2)C#CC(O)(C)C)C(O)(C)C,O=c1oc(c(c2c1ccs2)C#CC(O)(C)C)C(O)(C)C,283.7,0.302509721,0.2595,-8.2599,4.12316,397.8953735735034,0.233255468,-1.1731,-8.0164,138.19768,-1.255,-8.989,3.44989,NaN,NaN,NaN,NaN,NaN,NaN,NaN
JXLGTMVVPPSPTA-UHFFFAOYSA-N,CCOC(=O)C1=C(NC(=O)C1=NNc1ccc(cc1O)[N+](=O)[O-])c1ccccc1,CCOC(=O)C1=C(NC(=O)C1=NNc1ccc(cc1O)[N+](=O)[O-])c1ccccc1,378.2,1.205261737,-1.1586,-7.9556,8.76711,441.53916811076806,0.727294235,-2.3581,-8.4502,211.94868,-1.797,-8.61,13.84329,416.97784694033584,0.8801262015,624.0,NaN,465.0,NaN,THF
VEMKTZHHVJILDY-UHFFFAOYSA-N,CC(=CC1C(C1(C)C)C(=O)OCc1coc(c1)Cc1ccccc1)C,CC(=CC1C(C1(C)C)C(=O)OCc1coc(c1)Cc1ccccc1)C,235.1,0.018173962,1.5142,-8.4392,2.46030,298.03893847476843,0.225693491,0.2701,-7.7848,138.09269,0.138,-9.067,1.68538,NaN,NaN,NaN,NaN,NaN,NaN,NaN