inchikey,smi_pre,smi_post,lambda_sTDA (nm),f1_sTDA,lumo_dft,homo_dft,dmom_dft (D),lambda_z (nm),f1_z,lumo_z,homo_z,dmom_z (D),lumo_mopac,homo_mopac,dmom_mopac (D),lambda_tddft (nm),f1_tddft,lambda_exp_max (nm),epsilon_exp_max ,lambda_exp_min (nm),epsilon_exp_min ,solvent
NPTRRBSBGDERBY-UHFFFAOYSA-N,CCCCC1(CCCC)c2cc3c(C#Cc4ccccc4)c4ccccc4c(c3cc2c2c1cccc2)C#Cc1ccccc1,C1(C)c2cc3c(C#Cc4ccccc4)c4ccccc4c(c3cc2c2c1cccc2)C#Cc1ccccc1,442.5,1.031781212,-0.9037,-6.9422,0.83932,451.34400584457103,0.594943547,-0.9753,-6.7477,32.73326,-1.539,-8.047,0.67605,NaN,NaN,480,NaN,480,NaN,dichloromethane
OHVGYSWPICGIDS-UHFFFAOYSA-N,CCCCCCCn1c2ccc(cc2c2c1cc(cc2)C(=Cc1ccc(cc1)C#N)C#N)C(=Cc1ccc(cc1)C#N)C#N,Cn1c2ccc(cc2c2c1cc(cc2)C(=Cc1ccc(cc1)C#N)C#N)C(=Cc1ccc(cc1)C#N)C#N,306.0,0.106449152,-0.7898,-8.3513,2.07399,339.9621563079344,0.060827831,-0.8999,-8.0174,25.96531,-1.495,-8.745,5.1079,NaN,NaN,412.0,NaN,332.0,NaN,dichloromethane
BYBLEWFAAKGYCD-UHFFFAOYSA-N,Clc1ccc(c(c1)Cl)COC(c1ccc(cc1Cl)Cl)Cn1cncc1,Clc1ccc(c(c1)Cl)COC(c1ccc(cc1Cl)Cl)Cn1cncc1,245.2,0.002834878,0.515,-8.6326,3.29733,306.36075711762703,0.000567786,-0.7361,-8.3729,234.34982,-0.938,-9.435,2.4954,NaN,NaN,NaN,NaN,NaN,NaN,NaN
GLGVIWOZWRWBKE-UHFFFAOYSA-N,COc1nc(NN=Cc2cccc(c2O)OC)nc(n1)NN=Cc1cccc(c1O)OC,COc1nc(NN=Cc2cccc(c2O)OC)nc(n1)NN=Cc1cccc(c1O)OC,296.6,1.337344718,0.4874,-7.7994,4.58236,312.6177468620869,0.846930894,-0.3821,-8.17,90.55120,-0.727,-8.619,5.64387,302.9102465349966,1.2516996013,318,43700,318,43700,NaN
JEOMDMIVAWDLLW-UHFFFAOYSA-N,O=C1CN2C(N1)(C)C(c1c2ccc(c1)c1ccccc1)(C)C,O=C1CN2C(N1)(C)C(c1c2ccc(c1)c1ccccc1)(C)C,261.9,0.19139575,1.1133,-7.7604,3.65030,294.0801669959764,0.045992218,0.4462,-8.2048,96.68584,-0.25,-8.756,3.59293,NaN,NaN,345.0,18200.0,255.0,9800.0,THF
JJMGGCBXKXRZKK-UHFFFAOYSA-N,CN(C(=CC=Cc1ccccc1)c1ccc(cc1)C#N)C,CN(C(=CC=Cc1ccccc1)c1ccc(cc1)C#N)C,332.3,0.782249973,-0.0931,-7.2806,5.45158,328.0005248822848,0.751100974,-0.3581,-7.4673,77.38691,-0.949,-8.129,5.36332,NaN,NaN,410.0,NaN,400.0,NaN,Hexane
JVTZFYYHCGSXJV-UHFFFAOYSA-N,O=Cc1ccc(c(c1)O)OC,O=Cc1ccc(c(c1)O)OC,298.5,4.5325e-05,0.4201,-8.4848,6.37309,298.18229534753164,0.06573516,-0.8566,-8.9869,47.87566,-0.681,-9.078,4.19711,NaN,NaN,400,NaN,400,NaN,NaN
BVQVLAIMHVDZEL-UHFFFAOYSA-N,O=C(c1ccccc1)C(=O)C,O=C(c1ccccc1)C(=O)C,395.0,0.000586877,-0.4361,-9.2671,1.95008,386.8461728720863,0.00049425,-1.0638,-9.6502,52.03507,-0.906,-9.874,3.56448,NaN,NaN,450.0,NaN,391.0,NaN,ACN
QWUGJAMZVQLHTE-UHFFFAOYSA-N,c1ccc(cc1)c1ccc(s1)c1cncnc1,c1ccc(cc1)c1ccc(s1)c1cncnc1,291.0,0.865433385,0.0071,-8.1673,3.31115,336.1827505572225,0.57046438,-0.3447,-7.7897,95.28655,-1.175,-9.29,3.24978,305.66587695192413,0.7888355447,330.0,NaN,303.1,NaN,NaN
AMNKRBRQQAMACZ-UHFFFAOYSA-N,OCCONC(=O)c1ccc(c(c1Nc1ccc(cc1F)C#C)F)F,OCCONC(=O)c1ccc(c(c1Nc1ccc(cc1F)C#C)F)F,276.9,0.325598894,0.2201,-8.3249,2.16623,319.3822730693036,0.054138311,-1.0115,-8.4091,131.96184,-1.267,-9.177,2.64505,NaN,NaN,454,NaN,454,NaN,NaN
ILNRKRGYWZKZRC-UHFFFAOYSA-N,CN1c2cc(C=Nc3ccc4c(c3)cccc4)ccc2Sc2c1cccc2,CN1c2cc(C=Nc3ccc4c(c3)cccc4)ccc2Sc2c1cccc2,329.3,0.455397871,-0.0521,-7.4629,0.71697,352.4280796063208,0.030281468,-0.3788,-7.7336,168.26457,-0.856,-7.765,2.08416,NaN,NaN,287.0,36725,253.0,20932,DCM
OMEMWMBRXWKGNQ-UHFFFAOYSA-N,COc1ccc(cc1)C1CC(=NN1c1ccc(c(c1)C)C)c1ccc(cc1)Cl,COc1ccc(cc1)C1CC(=NN1c1ccc(c(c1)C)C)c1ccc(cc1)Cl,326.4,1.05619867,0.4619,-6.9803,3.19597,341.64838359190867,0.479715778,-0.6624,-7.6421,308.42730,-0.742,-8.081,2.74295,344.1997529475568,0.7442206243,413,NaN,413,NaN,NaN
KZPBFZJUQUXVAO-UHFFFAOYSA-N,Oc1cc(=O)n(c2c1cccc2)c1ccccc1,Oc1cc(=O)n(c2c1cccc2)c1ccccc1,280.8,0.126131644,0.4591,-8.2851,2.78529,333.11176358276106,0.158221488,-0.8246,-8.3285,77.74209,-0.838,-8.866,2.96621,NaN,NaN,400.0,NaN,394.0,NaN,MeOH
ALBCCHWQPQDIBL-UHFFFAOYSA-N,COc1ccc2c(c1)cc1c(n2C)nc(nc1=O)c1ccccc1,COc1ccc2c(c1)cc1c(n2C)nc(nc1=O)c1ccccc1,370.4,0.384923369,-1.0122,-8.1476,8.41551,397.3852512996912,0.000472204,-1.5605,-8.4018,61.60853,-1.713,-8.748,8.34291,NaN,NaN,454.0,34673.685045253165,268.0,10471.285480508985,NaN
RDOXTESZEPMUJZ-UHFFFAOYSA-N,COc1ccccc1,COc1ccccc1,240.8,0.036787377,1.7772,-8.3641,1.28971,272.1936298693824,0.013983851,0.653,-8.6754,18.49602,0.193,-8.976,1.45666,NaN,NaN,422,NaN,422,NaN,MeCN
XOMQVFJFRVDKCG-FQEVSTJZSA-N,COC(=O)[C@H](Cc1ccc2c(c1)nc(o2)c1ccnc2c1cccc2)NC(=O)OC(C)(C)C,COC(=O)[C@H](Cc1ccc2c(c1)nc(o2)c1ccnc2c1cccc2)NC(=O)OC(C)(C)C,307.5,0.487010463,-0.5215,-8.4809,2.72043,342.30866484125806,0.471930505,-1.172,-8.2257,92.87418,-1.464,-9.349,1.87094,NaN,NaN,355.0,NaN,239.0,NaN,NaN
AGFWCDXZPLWJJW-UHFFFAOYSA-N,N#CC(=Cc1ccc(cc1)C)c1ccc(cc1)N(c1ccc2c(c1)cccc2)c1ccccc1,N#CC(=Cc1ccc(cc1)C)c1ccc(cc1)N(c1ccc2c(c1)cccc2)c1ccccc1,327.3,0.203359338,-0.132,-7.3101,5.57384,347.78176270828516,0.04099653,-0.4218,-7.3011,95.23804,-0.803,-8.041,5.19067,NaN,NaN,401.0,NaN,310.0,NaN,THF
DPKHZNPWBDQZCN-UHFFFAOYSA-N,CN(c1ccc2c(c1)nc1c(c2)ccc(c1)N(C)C)C,CN(c1ccc2c(c1)nc1c(c2)ccc(c1)N(C)C)C,355.9,0.085239593,0.142,-7.1112,1.24040,372.54867309346054,0.306700926,-0.7779,-7.5356,11.17443,-0.917,-8.04,2.55063,NaN,NaN,490,NaN,490,NaN,NaN
HLOIHFMMBKIIIB-UHFFFAOYSA-N,Cc1ccc(cc1)n1ncc(c1)c1nc2c([nH]1)cccc2,Cc1ccc(cc1)n1ncc(c1)c1nc2c([nH]1)cccc2,271.7,1.040227134,0.6557,-7.8473,1.97893,345.2637104024051,0.72104867,-0.4726,-7.6149,54.77977,-0.779,-8.6,2.60433,275.4041471583986,1.0821978209,305,NaN,305,NaN,NaN
GPXHIYXWGUYGHF-UHFFFAOYSA-N,CN(c1ccc(cc1)C=C1CCC(=Cc2ccc(cc2)N(C)C)C1=O)C,CN(c1ccc(cc1)C=C1CCC(=Cc2ccc(cc2)N(C)C)C1=O)C,349.0,0.023423597,-0.0358,-7.0308,5.51895,380.2030003235316,0.000877992,-0.5932,-7.9046,62.42147,-0.341,-8.17,3.45207,NaN,NaN,535.0,NaN,466.5,NaN,NaN
OFHVUPFIWLDBCF-UHFFFAOYSA-N,OCCN(c1ccc2c3c1cccc3c(=O)n(c2=O)CC(C)C)C,OCCN(c1ccc2c3c1cccc3c(=O)n(c2=O)CC(C)C)C,334.1,0.297709327,-0.7631,-8.3762,4.05274,341.9310491050846,0.365563434,-1.5439,-8.5997,24.37324,-1.553,-9.247,4.92342,NaN,NaN,412.0,NaN,396.0,NaN,Acetone
JDRBVZJQYLZMIF-UHFFFAOYSA-N,Cc1ccc(cc2c1c(N=Nc1nc3c(s1)cccc3)cc2C)C(C)C,Cc1ccc(cc2c1c(N=Nc1nc3c(s1)cccc3)cc2C)C(C)C,492.6,0.015932628,-0.9037,-7.1527,5.51584,589.5587180480439,0.03093688,-1.4033,-7.0764,268.17802,-1.676,-8.011,5.14225,NaN,NaN,517.0,NaN,233.0,NaN,NaN
NSGDHTQRHUBRLU-UHFFFAOYSA-N,CC(=O)n1c2ccc(cc2c2c1ccc(c2)Cl)Cl,CC(=O)n1c2ccc(cc2c2c1ccc(c2)Cl)Cl,278.7,0.054088044,0.141,-8.5096,3.00528,311.2834506791455,0.024867564,-0.8157,-8.6437,135.53505,-1.181,-9.055,3.88505,NaN,NaN,378.0,NaN,298.0,NaN,NaN
MTCZBUMWABMOEU-UHFFFAOYSA-N,Cc1ccc(cc1)Cn1ccc2c1c1[nH]c(=O)c(cc1CC2)S(=O)(=O)c1ccccc1,Cc1ccc(cc1)Cn1ccc2c1c1[nH]c(=O)c(cc1CC2)S(=O)(=O)c1ccccc1,340.8,0.686892824,-0.0987,-7.6942,9.27712,442.01140251516455,0.480669392,-1.3597,-7.8327,244.09854,-0.972,-8.657,9.60832,NaN,NaN,375,40531,375,40531,NaN
LEUJXCKDMMJNPT-UHFFFAOYSA-N,OC(=O)C(NC1=CC(=O)C(=C(C1=O)C)NC(C(=O)O)Cc1ccccc1)Cc1ccccc1,OC(=O)C(NC1=CC(=O)C(=C(C1=O)C)NC(C(=O)O)Cc1ccccc1)Cc1ccccc1,436.2,0.00095487,-1.4389,-8.7201,1.13994,501.75717687375015,0.001128408,-2.721,-8.8864,14.00730,-1.918,-9.633,3.23345,NaN,NaN,346,NaN,346,NaN,NaN
FXWXIVXCVYFTAQ-UHFFFAOYSA-N,Cc1cc(c(s1)C)C1=C(CC(C1=O)Sc1ccccc1)c1cc(sc1C)C,Cc1cc(c(s1)C)C1=C(CC(C1=O)Sc1ccccc1)c1cc(sc1C)C,313.0,0.007676345,0.1497,-8.0411,4.92353,364.98144953047887,0.051414548,-0.5868,-7.653,77.66007,-0.6,-8.449,4.3012,NaN,NaN,328.0,NaN,242.0,NaN,NaN
LDJVNWFKNMYYNT-UHFFFAOYSA-N,OC(=C1C(=O)c2ccccc2S(=O)(=O)N1C)Nc1ccccn1,OC(=C1C(=O)c2ccccc2S(=O)(=O)N1C)Nc1ccccn1,302.9,0.386216898,-0.1975,-8.2317,7.24759,383.73320459765915,0.393344914,-1.329,-8.3001,125.29965,-1.213,-9.038,4.77653,NaN,NaN,NaN,NaN,NaN,NaN,NaN
UIHYHADQHHUIOF-UHFFFAOYSA-N,OCCN(c1ccc(c(c1)C)N=Nc1ncc(s1)[N+](=O)[O-])CC,OCCN(c1ccc(c(c1)C)N=Nc1ncc(s1)[N+](=O)[O-])CC,471.7,0.001359285,-1.3614,-7.8012,8.95673,536.2638339338394,0.042617179,-2.5058,-8.3491,401.62660,-2.03,-8.702,10.1042,NaN,NaN,612,36314,612,36314,NaN
LCHQFQBXXQLSHZ-UHFFFAOYSA-N,NC(=O)c1cc2c(n1Cc1ccccc1)c1nc(ncc1CCC2)Nc1ccccc1,NC(=O)c1cc2c(n1Cc1ccccc1)c1nc(ncc1CCC2)Nc1ccccc1,293.5,0.328569395,0.3772,-7.7276,3.95553,364.44502764698314,0.425734759,-0.7435,-7.8005,47.97932,-0.657,-8.485,3.28493,NaN,NaN,NaN,NaN,NaN,NaN,NaN
JARJNZUWHILBCR-UHFFFAOYSA-N,O1CCN(CC1)c1ccc2c(c1)c1nc3c(nc1cc2)c1cccnc1c1c3cccn1,O1CCN(CC1)c1ccc2c(c1)c1nc3c(nc1cc2)c1cccnc1c1c3cccn1,362.7,0.160266143,-0.6285,-7.5118,4.46361,407.97696086049245,0.59132457,-1.2348,-7.6545,72.54872,-1.557,-8.461,4.18383,NaN,NaN,538.0,NaN,423.0,NaN,TFA
KUFFULVDNCHOFZ-UHFFFAOYSA-N,Cc1ccc(c(c1)C)O,Cc1ccc(c(c1)C)O,247.3,0.042895332,1.8668,-8.0721,1.03220,285.4805397317607,0.027681919,0.6724,-8.3068,44.01580,0.212,-8.761,1.95283,NaN,NaN,700,NaN,700,NaN,NaN
SXDVGCKALBLORV-UHFFFAOYSA-N,Cc1ccc(cc1)N=Nc1ccc(c(c1)C=Nc1ccc(cc1)C(=O)O)O,Cc1ccc(cc1)N=Nc1ccc(c(c1)C=Nc1ccc(cc1)C(=O)O)O,428.0,0.001423459,-0.5109,-8.0547,3.79413,522.2586284983305,0.009362037,-1.3521,-8.2201,243.16538,-1.207,-8.931,3.89915,NaN,NaN,333,NaN,333,NaN,NaN
OVSQVDMCBVZWGM-QSOFNFLRSA-N,OC[C@H]1O[C@@H](Oc2c(oc3c(c2=O)c(O)cc(c3)O)c2ccc(c(c2)O)O)[C@@H]([C@H]([C@@H]1O)O)O,OC[C@H]1O[C@@H](Oc2c(oc3c(c2=O)c(O)cc(c3)O)c2ccc(c(c2)O)O)[C@@H]([C@H]([C@@H]1O)O)O,290.9,0.428411294,-0.175,-8.4169,6.38552,360.41918141134784,0.193631626,-1.4664,-8.5011,59.20981,-1.185,-8.947,2.83949,NaN,NaN,NaN,NaN,NaN,NaN,NaN
QJYZHBMYTZEFNR-UHFFFAOYSA-N,c1ccc2c(c1)[nH]c(n2)c1ccc(cc1)c1ccc(cc1)c1ccc(cc1)c1nc2c([nH]1)cccc2,c1ccc2c(c1)[nH]c(n2)c1ccc(cc1)c1ccc(cc1)c1ccc(cc1)c1nc2c([nH]1)cccc2,306.5,2.698369248,-0.111,-7.7926,4.09163,353.63433658158493,1.533471044,-0.701,-7.6014,3.96664,-1.045,-8.788,2.77896,NaN,NaN,349,NaN,349,NaN,NaN
MUMTZUYEIZVYRU-UHFFFAOYSA-N,c1ccc(cc1)[Si](c1ccc(cc1)c1cccc2c1non2)(c1ccc(cc1)c1cccc2c1non2)c1ccccc1,c1ccc(cc1)[Si](c1ccc(cc1)c1cccc2c1non2)(c1ccc(cc1)c1cccc2c1non2)c1ccccc1,310.4,0.832266673,-0.6674,-8.5793,2.11447,404.64816711979,0.353010253,-1.8088,-8.2832,157.16645,-1.626,-9.328,0.64949,NaN,NaN,NaN,NaN,NaN,NaN,NaN
SQFDVFKOSPROJF-UHFFFAOYSA-N,[O-][N+](=O)c1ccc(cc1)N=Nc1c([nH]c2n1nc(c2N=Nc1ccc(cc1)[N+](=O)[O-])C)c1ccccc1,[O-][N+](=O)c1ccc(cc1)N=Nc1c([nH]c2n1nc(c2N=Nc1ccc(cc1)[N+](=O)[O-])C)c1ccccc1,454.7,0.006363784,-1.681,-8.0458,4.65179,535.8003388310443,0.002712181,-2.7099,-8.1705,79.89112,-2.338,-9.14,4.7773,NaN,NaN,586.0,NaN,448.0,NaN,NaN
MKNFQJUERUYJHK-UHFFFAOYSA-N,Brc1ccc(cc1)NC1=C(Br)C(=O)OC1OCc1ccccc1,Brc1ccc(cc1)NC1=C(Br)C(=O)OC1OCc1ccccc1,256.7,0.504558265,0.4826,-8.4761,5.51759,323.2121960518865,0.002602128,-0.7842,-8.9199,239.20458,-1.053,-8.984,6.23949,NaN,NaN,292,NaN,292,NaN,NaN
MIKNASNDGGKURG-UHFFFAOYSA-N,CC(=O)Nc1ccc(cc1)c1sc(=S)n(c1C)O,CC(=O)Nc1ccc(cc1)c1sc(=S)n(c1C)O,285.9,0.801827129,0.4811,-7.6584,6.48277,451.50837001275914,0.000973747,-0.747,-8.2892,251.53195,-1.16,-8.244,6.31597,304.0691428798025,0.6829794889,336,NaN,336,NaN,NaN
OOEXZAOADKRCBU-UHFFFAOYSA-N,Nc1nc2n(c(c1N=Nc1ccccc1[N+](=O)[O-])N)nc(c2N=Nc1nccs1)N,Nc1nc2n(c(c1N=Nc1ccccc1[N+](=O)[O-])N)nc(c2N=Nc1nccs1)N,433.3,0.010665379,-0.9983,-7.5262,5.89960,525.802368131907,0.032538007,-2.5338,-7.4896,166.39518,-1.745,-8.42,7.47422,NaN,NaN,495,NaN,495,NaN,NaN
QSDPVUXYZCUDOE-UHFFFAOYSA-N,[O-][N+](=O)c1ccc(cc1)C=Cc1ccc(s1)C=Cc1ccc2c(c1)c(=C1SC=CS1)c1c(c2=C2SC=CS2)cccc1,[O-][N+](=O)c1ccc(cc1)C=Cc1ccc(s1)C=Cc1ccc2c(c1)c(=C1SC=CS1)c1c(c2=C2SC=CS2)cccc1,394.9,2.521965609,-0.969,-6.8364,7.29896,458.18255138767057,0.944679173,-2.4186,-7.4239,233.16375,-1.627,-7.889,6.79608,425.2733518873549,2.2666899172,500,NaN,500,NaN,NaN
YUHWYIZDZWXVNZ-UHFFFAOYSA-N,N#Cc1cnn2c1nc(C)c1c2N(CC1)c1cccc(c1)Cl,N#Cc1cnn2c1nc(C)c1c2N(CC1)c1cccc(c1)Cl,291.6,0.436148099,0.3484,-7.9926,10.04784,378.6933366081358,0.175067274,-0.8286,-7.97,164.44977,-1.143,-8.83,8.82558,NaN,NaN,369,NaN,369,NaN,NaN
GHOMZWLCEDGKIH-UHFFFAOYSA-N,c1ccc2c(c1)ccc(c2)N=Cc1ccc2c(c1)cccc2,c1ccc2c(c1)ccc(c2)N=Cc1ccc2c(c1)cccc2,320.1,0.56161743,-0.2216,-7.8584,1.54697,351.23002381162513,0.058783278,-0.5784,-7.7036,4.56753,-0.862,-8.727,1.71248,NaN,NaN,406.0,49310,257.0,18920,NaN
NOFJPMPQENDKBY-UHFFFAOYSA-N,c1ccc(nc1)N(c1cccc(c1)n1c2ccccc2c2c1cccc2)c1ccccn1,c1ccc(nc1)N(c1cccc(c1)n1c2ccccc2c2c1cccc2)c1ccccn1,287.9,0.05382276,0.9283,-7.6146,2.79871,323.0437686438344,0.07332776,0.0771,-7.63,56.72745,-0.476,-8.159,2.54403,NaN,NaN,341.0,NaN,294.0,NaN,NaN
LPONTBZAPKDOEU-UHFFFAOYSA-N,CCCCCCCC(=O)NC(C(=O)NC(CCc1ccccc1)C)C,C(=O)NC(C(=O)NC(CCc1ccccc1)C)C,234.6,0.005539267,1.5378,-8.8577,3.76531,285.74371607629325,0.000897512,0.3365,-8.4792,92.56689,0.355,-9.392,3.10786,NaN,NaN,NaN,NaN,NaN,NaN,NaN
MSZQCNIEXFAWKV-UHFFFAOYSA-N,c1ccc(cc1)c1ncc(nc1)c1ccccc1,c1ccc(cc1)c1ncc(nc1)c1ccccc1,303.7,0.009891183,-0.0789,-8.3254,0.00023,354.6458764459487,0.0181629,-0.5727,-7.9738,0.01195,-1.096,-9.26,0.19367,NaN,NaN,326,NaN,326,NaN,NaN
OVSKIKFHRZPJSS-UHFFFAOYSA-N,OC(=O)COc1ccc(cc1Cl)Cl,OC(=O)COc1ccc(cc1Cl)Cl,244.0,0.011136836,1.0719,-9.0247,2.45271,285.08668292826775,0.000950982,-0.2979,-9.4969,55.80982,-0.81,-9.877,1.98425,NaN,NaN,NaN,NaN,NaN,NaN,NaN
RDVDOVPGYJZPEP-UHFFFAOYSA-N,N#CC(=Cc1ccc(s1)c1ccc(s1)c1ccc2c(c1)c1ccccc1n2c1ccc2c(c1)C(C)(C)c1c2cccc1)C(=O)O,N#CC(=Cc1ccc(s1)c1ccc(s1)c1ccc2c(c1)c1ccccc1n2c1ccc2c(c1)C(C)(C)c1c2cccc1)C(=O)O,382.0,2.064985544,-1.1035,-7.4496,7.11626,502.7745271918234,1.140022608,-1.8068,-7.3544,791.76332,-1.952,-8.264,7.63884,NaN,NaN,435.0,NaN,430.0,NaN,NaN
DACUJXBUANTBKE-UHFFFAOYSA-N,CC(=O)Nc1cc(cc2c1c(O)cc(c2)S(=O)(=O)O)S(=O)(=O)O,CC(=O)Nc1cc(cc2c1c(O)cc(c2)S(=O)(=O)O)S(=O)(=O)O,307.2,0.174136406,-0.4026,-8.524,8.37326,339.03253597348555,0.088798697,-1.6002,-8.9248,155.06483,-1.52,-9.099,6.93727,NaN,NaN,803.0,NaN,702.0,NaN,NaN
AOJJSUZBOXZQNB-TZSSRYMLSA-N,OCC(=O)[C@@]1(O)C[C@H](O[C@H]2C[C@H](N)[C@@H]([C@@H](O2)C)O)c2c(C1)c(O)c1c(c2O)C(=O)c2c(C1=O)cccc2OC,OCC(=O)[C@@]1(O)C[C@H](O[C@H]2C[C@H](N)[C@@H]([C@@H](O2)C)O)c2c(C1)c(O)c1c(c2O)C(=O)c2c(C1=O)cccc2OC,398.1,0.464888801,-1.4503,-8.2839,10.97001,414.9404230438543,0.001077818,-2.1733,-8.8078,101.63337,-2.02,-9.228,5.36973,NaN,NaN,NaN,NaN,NaN,NaN,NaN
LBSNOOPAHCBFIW-UHFFFAOYSA-N,N#CC(=Cc1ccc(cc1)C#Cc1ccc2c3c1cccc3c1c2c(c2ccccc2)c2c(c1c1ccccc1)cccc2)C(=O)O,N#CC(=Cc1ccc(cc1)C#Cc1ccc2c3c1cccc3c1c2c(c2ccccc2)c2c(c1c1ccccc1)cccc2)C(=O)O,385.6,2.048314225,-1.2528,-7.4976,4.30745,400.20722532441465,1.088645595,-1.3916,-7.2466,458.84345,-1.672,-8.463,4.18563,404.6085337899013,1.8682216381,433.0,NaN,302.0,NaN,NaN
PMMKEEBFNMXAAQ-UHFFFAOYSA-N,N#Cc1cnn2c1nc(C)c1c2N(CC1)c1ccc(cc1)F,N#Cc1cnn2c1nc(C)c1c2N(CC1)c1ccc(cc1)F,283.1,0.359146013,0.5792,-8.0168,9.24590,379.2725555384021,0.176339224,-0.8189,-7.9653,106.25279,-1.063,-8.795,9.85657,NaN,NaN,363,NaN,363,NaN,NaN
RDHCDXMHFLYZPK-UHFFFAOYSA-N,O=Cc1c(C)c2C=CC3(Oc2c2c1oc(=O)cc2C)N(C(C)C)c1c(C3(C)C)cccc1,O=Cc1c(C)c2C=CC3(Oc2c2c1oc(=O)cc2C)N(C(C)C)c1c(C3(C)C)cccc1,311.5,3.6634e-05,-0.1114,-8.0143,8.14644,376.27981306677896,2.5287e-05,-1.2578,-8.1749,232.80064,-0.943,-8.598,7.2872,NaN,NaN,NaN,NaN,NaN,NaN,NaN
QAQMAVHRKRKKAR-UHFFFAOYSA-N,N#CC(c1ccc2c(c1)Cc1c2cccc1)C#N,N#CC(c1ccc2c(c1)Cc1c2cccc1)C#N,266.6,0.335421459,0.2013,-8.6685,5.03456,302.9176604092442,0.453034258,-0.4131,-8.1929,105.36666,-0.964,-9.28,4.15858,NaN,NaN,394.0,61549,347.0,61549,NaN
VBGJXRPCSTXKSG-UHFFFAOYSA-N,c1ccc(cc1)c1cccc2c1c1ccccc1C12c2ccccc2c2c1cccc2,c1ccc(cc1)c1cccc2c1c1ccccc1C12c2ccccc2c2c1cccc2,270.9,0.20291817,0.7171,-7.9914,0.22810,309.8830252574448,0.223783981,0.0043,-7.6147,9.28322,-0.433,-8.776,0.13482,NaN,NaN,257,NaN,257,NaN,NaN
OKNFGXFFXNINMX-UHFFFAOYSA-N,Brc1cnc2c(c1)C(F)(F)c1c2nccc1,Brc1cnc2c(c1)C(F)(F)c1c2nccc1,279.2,0.206284232,-0.2819,-9.0353,2.12363,315.4011661294929,0.471425826,-1.0556,-8.8429,256.63003,-1.711,-9.885,2.19744,NaN,NaN,309,NaN,309,NaN,NaN
ZDFBPPCYNUEZKB-NJLVRNGCSA-N,COC(=O)c1cc2ccccc2cc1c1cc2ccccc2cc1C(=O)N[C@H]1C[C@H]2C[C@@H]([C@@H]1C)C2(C)C,COC(=O)c1cc2ccccc2cc1c1cc2ccccc2cc1C(=O)N[C@H]1C[C@H]2C[C@@H]([C@@H]1C)C2(C)C,290.4,0.059986247,0.0585,-8.0892,5.13826,322.7914564058934,0.016681582,-0.5171,-8.0733,129.42802,-0.959,-9.037,4.23868,NaN,NaN,227.6,21800,227.6,21800,NaN
WFFZGYRTVIPBFN-UHFFFAOYSA-N,O=C1C(=O)Cc2c1cccc2,O=C1C(=O)Cc2c1cccc2,471.0,1.435e-05,-0.8961,-9.1561,5.77543,496.33386071058305,5.6238e-05,-1.6951,-9.6557,75.42293,-1.172,-9.795,4.9186,NaN,NaN,613.0,47025,443.0,44708,Chlorobenzene
QMKIOJWJAFHNPM-UHFFFAOYSA-N,O=c1c(c2ccccc2)c2c(n1c1ccccc1)c(c(=O)n2c1ccccc1)c1ccccc1,O=c1c(c2ccccc2)c2c(n1c1ccccc1)c(c(=O)n2c1ccccc1)c1ccccc1,393.9,0.000918766,-0.7748,-8.2615,0.29734,433.0569277174421,0.000914945,-1.7068,-8.1794,1.86175,-1.802,-8.775,0.51526,NaN,NaN,348,NaN,348,NaN,NaN
PCYFKCWZPVDTPL-UHFFFAOYSA-N,CCOc1ccc(s1)c1ccc(s1)N=Nc1nccs1,CCOc1ccc(s1)c1ccc(s1)N=Nc1nccs1,451.8,3.677e-06,-1.0169,-7.4038,3.30414,541.1793906831239,0.054767501,-1.8083,-7.6046,172.76958,-1.738,-8.689,3.89201,NaN,NaN,531.0,33690,509.0,33690,Dioxane
FYKSAYUCFUPOQW-UHFFFAOYSA-N,c1ccc2c(c1)C1(c3ccc(cc3c3c1ccc(c3)n1c3ccccc3c3c1cccc3)n1c3ccccc3c3c1cccc3)c1c2cccc1,c1ccc2c(c1)C1(c3ccc(cc3c3c1ccc(c3)n1c3ccccc3c3c1cccc3)n1c3ccccc3c3c1cccc3)c1c2cccc1,284.7,0.109456158,0.3531,-7.6351,2.85984,328.8705527997445,0.174506763,-0.1755,-7.4482,11.20116,-0.843,-8.194,1.98339,NaN,NaN,352.0,NaN,280.0,NaN,NaN
JWXNGJNGMHKAFI-UHFFFAOYSA-N,CC(c1cccc(c1c1ccnc(c1)c1[nH]nc(c1)C(F)(F)F)C(C)C)C,CC(c1cccc(c1c1ccnc(c1)c1[nH]nc(c1)C(F)(F)F)C(C)C)C,249.1,0.551314397,0.1857,-8.9782,6.45679,307.576775999761,0.429052861,-0.906,-8.696,471.49530,-1.116,-9.596,7.14396,NaN,NaN,NaN,NaN,NaN,NaN,NaN
WCUVWZMIHNUBFZ-UHFFFAOYSA-N,BrC1=CC(=Nc2ccc(cc2)O)C=C(C1=O)Br,BrC1=CC(=Nc2ccc(cc2)O)C=C(C1=O)Br,415.8,0.375250326,-1.7159,-8.2855,4.99803,489.0895400611584,0.162784812,-2.5323,-8.6002,359.65380,-2.169,-9.185,4.03079,NaN,NaN,606.0,NaN,591.0,NaN,NaN
ZMJUVPXMULRKRM-UHFFFAOYSA-N,O=C1CCCN1CCCn1c(Nc2ccc(c(c2)Cl)Cl)nc2c1cc1oc(=O)c(c(c1c2)C)C(=O)N,O=C1CCCN1CCCn1c(Nc2ccc(c(c2)Cl)Cl)nc2c1cc1oc(=O)c(c(c1c2)C)C(=O)N,313.4,0.589085949,-0.1024,-7.5963,13.43713,374.8010834507366,0.376390581,-1.2856,-8.0752,352.95401,-1.387,-8.475,10.99199,NaN,NaN,364,NaN,364,NaN,ethanol
QZOUEFZGQJQCBI-UHFFFAOYSA-N,COc1c(F)c(F)cc2c1c(=O)c(cn2C)C(=O)c1ccccc1Cc1ccccc1,COc1c(F)c(F)cc2c1c(=O)c(cn2C)C(=O)c1ccccc1Cc1ccccc1,294.5,0.010704912,0.2417,-8.3291,4.29755,404.1205945420589,4.4501e-05,-1.3024,-8.443,175.04776,-0.875,-8.961,3.95433,NaN,NaN,473.0,NaN,332.0,NaN,NaN
ARRZWZWDUBVZHT-UHFFFAOYSA-N,Cc1ccc2c(c1)c(N)cc(n2)Cl,Cc1ccc2c(c1)c(N)cc(n2)Cl,283.5,0.074702165,0.4958,-8.2166,5.19147,322.12054664978865,0.05894603,-0.6022,-8.214,174.05147,-0.742,-8.756,6.56346,NaN,NaN,306,NaN,306,NaN,NaN
LPBKFSMNXJCAJF-UHFFFAOYSA-N,N#CC(=Cc1ccc2c(c1)cccc2)c1ccc(cc1)N(c1ccccc1)c1ccccc1,N#CC(=Cc1ccc2c(c1)cccc2)c1ccc(cc1)N(c1ccccc1)c1ccccc1,331.3,0.229550533,-0.3376,-7.398,5.58003,355.8673892236041,0.133462343,-0.6125,-7.3098,83.79440,-1.022,-8.058,4.64145,NaN,NaN,412.0,NaN,302.0,NaN,THF
GZDXSIJQBZCEFX-UHFFFAOYSA-N,COc1ccc(cc1)CNc1ncnc2c1nc([nH]2)C=Cc1ccc(cc1)C#N,COc1ccc(cc1)CNc1ncnc2c1nc([nH]2)C=Cc1ccc(cc1)C#N,333.4,1.420268441,-0.7841,-7.8406,3.23773,374.00964828206236,0.832558627,-1.0938,-7.7181,65.46172,-1.363,-8.633,3.95284,349.2610862538084,1.0940134098,371.0,NaN,0.0,NaN,DMSO
QTCSURXWDYNCGE-HKBOAZHASA-N,CC[C@@H]([C@H](C(=O)c1ccccc1)[C@H](C(C)C)C[N+](=O)[O-])c1ccccc1,CC[C@@H]([C@H](C(=O)c1ccccc1)[C@H](C(C)C)C[N+](=O)[O-])c1ccccc1,301.8,0.000673099,-0.0423,-9.1724,5.72882,410.5437033294823,7.7006e-05,-2.2274,-8.7681,152.18474,-0.838,-9.657,6.25261,NaN,NaN,NaN,NaN,NaN,NaN,NaN
CTJHYFMVHNFRCD-UHFFFAOYSA-N,C[Si](C#Cc1c2cc3c4ccccc4C(c3cc2c(c2c1cccc2)C#C[Si](C)(C)C)(C)C)(C)C,C[Si](C#Cc1c2cc3c4ccccc4C(c3cc2c(c2c1cccc2)C#C[Si](C)(C)C)(C)C)(C)C,418.4,0.515927627,-0.8011,-7.1454,0.99593,437.64277587541,0.417423751,-0.8434,-6.7094,64.24178,-1.326,-7.903,0.65478,NaN,NaN,455,NaN,455,NaN,dichloromethane
ITNUYSZADHHRTB-UHFFFAOYSA-N,Clc1ccccc1N=NC(=NNc1nc2c(s1)cccc2)c1cccs1,Clc1ccccc1N=NC(=NNc1nc2c(s1)cccc2)c1cccs1,500.3,0.000353158,-1.3638,-7.585,2.62147,613.7831604232855,0.001278247,-1.9783,-7.6355,60.80354,-1.852,-8.456,2.48287,NaN,NaN,510,NaN,510,NaN,NaN
IYYZUPMFVPLQIF-UHFFFAOYSA-N,c1ccc2c(c1)sc1c2cccc1,c1ccc2c(c1)sc1c2cccc1,275.9,0.032867511,0.6554,-8.1033,0.83646,293.24550237820165,0.384685017,-0.1196,-8.0996,66.89602,-0.712,-8.421,1.2655,NaN,NaN,424.0,NaN,236.0,NaN,NaN