inchikey,smi_pre,smi_post,lambda_sTDA (nm),f1_sTDA,lumo_dft,homo_dft,dmom_dft (D),lambda_z (nm),f1_z,lumo_z,homo_z,dmom_z (D),lumo_mopac,homo_mopac,dmom_mopac (D),lambda_tddft (nm),f1_tddft,lambda_exp_max (nm),epsilon_exp_max ,lambda_exp_min (nm),epsilon_exp_min ,solvent
ZQUKAUVNWWNULQ-UHFFFAOYSA-N,COC(=O)c1c[nH]c2c1CCc1c2cc(cc1)C,COC(=O)c1c[nH]c2c1CCc1c2cc(cc1)C,273.4,0.417852245,1.1324,-7.5674,2.48952,347.1002195002902,0.303328758,-0.3209,-7.4883,119.98928,-0.247,-8.441,3.95755,NaN,NaN,NaN,NaN,NaN,NaN,NaN
IWTGFYBALHWJGB-JMJZKYOTSA-N,OC[C@H]1O[C@H](C[C@@H]1O)n1cc(c2ccco2)c(=O)[nH]c1=O,OC[C@H]1O[C@H](C[C@@H]1O)n1cc(c2ccco2)c(=O)[nH]c1=O,277.7,0.518738645,0.6446,-7.8144,4.60457,366.0590445984755,0.324015891,-1.0784,-7.9771,47.54180,-0.985,-8.841,4.08217,NaN,NaN,316.0,NaN,314.0,NaN,EtOAc
GZXGJRRLLZKMKH-UHFFFAOYSA-N,N#Cc1ccc(cc1)Cn1c(C=Cc2ccco2)nc(c1c1ccco1)c1ccco1,N#Cc1ccc(cc1)Cn1c(C=Cc2ccco2)nc(c1c1ccco1)c1ccco1,319.2,1.434534102,0.0866,-7.2257,4.54193,437.1798251251892,0.720000744,-0.9023,-6.8462,26.00969,-1.007,-8.325,4.58078,343.5226449330584,1.0282804788,346,NaN,346,NaN,NaN
OSOUNOBYRMOXQQ-UHFFFAOYSA-N,Cc1cccc(c1)Cl,Cc1cccc(c1)Cl,237.9,0.002781161,1.4535,-8.9811,2.02778,271.06296109642255,0.008188499,0.2513,-9.1623,106.78233,-0.153,-9.66,2.58395,NaN,NaN,266.0,NaN,193.0,NaN,NaN
JJUNUQIPCCYSNC-UHFFFAOYSA-N,COc1ccc(cc1)C=c1oc(=Cc2ccccc2)c2c1cccc2,COc1ccc(cc1)C=c1oc(=Cc2ccccc2)c2c1cccc2,356.4,0.815039125,-0.0586,-7.0129,0.87825,366.0590445984755,0.36760162,-0.4668,-7.2902,36.51062,-1.029,-8.108,2.49276,370.77721525535884,0.6289413127,376,31000.0,376,31000.0,NaN
YPFOWNWUXHPLNP-UHFFFAOYSA-N,CCCCCCC1(CCCCCC)c2cc(ccc2c2c1cc(cc2)n1c2ccccc2c2c1cccc2)c1ccc(cc1)C#N,C1(C)c2cc(ccc2c2c1cc(cc2)n1c2ccccc2c2c1cccc2)c1ccc(cc1)C#N,296.9,1.391902414,-0.2444,-7.6818,3.75333,334.9113949365307,0.950165692,-0.5383,-7.5482,102.41947,-1.126,-8.235,3.61002,305.1768356246817,1.3931664272,346.0,NaN,294.0,NaN,NaN
FRWWFSWMMKPQKW-UHFFFAOYSA-N,N#CC(=Cc1ccc(cc1)c1ccc(cc1)N(c1ccc(cc1)C)c1ccc(cc1)C)C#N,N#CC(=Cc1ccc(cc1)c1ccc(cc1)N(c1ccc(cc1)C)c1ccc(cc1)C)C#N,349.9,1.573568984,-1.1583,-7.3388,9.87809,353.13072744375864,0.770551679,-1.1858,-7.2488,258.54265,-1.569,-7.955,7.31227,376.19987562350775,1.3506785806,531.0,NaN,303.0,NaN,NaN
WYWHKKSPHMUBEB-UHFFFAOYSA-N,Nc1nc2nc[nH]c2c(=S)[nH]1,Nc1nc2nc[nH]c2c(=S)[nH]1,312.3,0.000173617,0.2794,-7.9239,1.91278,432.0006913083751,0.000245073,-0.967,-7.9113,49.72304,-1.376,-8.634,2.05624,NaN,NaN,340.0,NaN,340.0,NaN,NaN
LPSJFIDQOPIXFM-UHFFFAOYSA-N,COc1nc(Nc2ccc3c(c2)cc2c(c3)cccc2)nc(n1)OC,COc1nc(Nc2ccc3c(c2)cc2c(c3)cccc2)nc(n1)OC,362.1,0.087552538,-0.1258,-7.3473,0.93428,370.7661435571282,0.131360061,-0.7587,-7.3562,203.67635,-1.252,-8.348,1.87642,NaN,NaN,398.0,NaN,394.0,NaN,"1,4-dioxane"
FBZJVSMLJFCQKE-UHFFFAOYSA-N,N#Cc1c(C#N)c2ccc3c(c2c2c1ccc1c2c2ccccc2cc1)c1ccccc1cc3,N#Cc1c(C#N)c2ccc3c(c2c2c1ccc1c2c2ccccc2cc1)c1ccccc1cc3,378.2,0.024670434,-1.2039,-8.2385,9.68112,431.2493857582736,0.017044114,-1.447,-7.7504,148.16558,-1.924,-8.89,8.49785,NaN,NaN,268,NaN,268,NaN,dichloromethane
YWZVOOMBYLRRAT-UHFFFAOYSA-N,N#Cc1cc(Nc2cccc3c2cccc3)c2c(c1N)C(=O)c1c(C2=O)cccc1,N#Cc1cc(Nc2cccc3c2cccc3)c2c(c1N)C(=O)c1c(C2=O)cccc1,466.1,0.459777272,-1.3774,-7.5916,3.03940,477.7811113892241,0.301482269,-2.0916,-7.9146,103.73705,-2.017,-8.13,3.43931,NaN,NaN,630,NaN,630,NaN,NaN
JFMKIAPBUNBJCS-UHFFFAOYSA-N,N#CC(=Cc1cccc2c1cccc2)c1ccc(cc1)N(c1cccc2c1cccc2)c1ccccc1,N#CC(=Cc1cccc2c1cccc2)c1ccc(cc1)N(c1cccc2c1cccc2)c1ccccc1,327.9,0.348218551,-0.1208,-7.413,5.82886,339.58969708437047,0.132796092,-0.4397,-7.3815,77.50190,-0.84,-8.084,4.21845,NaN,NaN,395.0,NaN,257.0,NaN,THF
MWRIEIAKSBFDRY-UHFFFAOYSA-N,CN1c2cccc(c2Sc2c1cccc2)C=Nc1ccc2c(c1)cccc2,CN1c2cccc(c2Sc2c1cccc2)C=Nc1ccc2c(c1)cccc2,313.4,0.39396701,0.0092,-7.6126,3.30685,328.26104952476476,0.182856497,-0.2448,-7.6933,65.65558,-0.636,-7.832,3.91932,NaN,NaN,321.0,18215,289.0,16010,DCM
VPYUPECLLOSHOY-UHFFFAOYSA-N,N#Cc1nc(c2ccc(cc2)O)c(nc1C#N)c1ccc(cc1)O,N#Cc1nc(c2ccc(cc2)O)c(nc1C#N)c1ccc(cc1)O,310.8,0.417497144,-0.9323,-8.4522,8.80220,368.3428354293038,0.429291097,-1.4292,-8.2811,65.08425,-2.129,-9.429,7.29227,NaN,NaN,388.0,NaN,305.0,NaN,NaN
JHXSPYXSOUXWRJ-UHFFFAOYSA-N,CCc1ccc2c(c1)C(=C(N(S2(=O)=O)C)c1ccc(cc1)C)I,CCc1ccc2c(c1)C(=C(N(S2(=O)=O)C)c1ccc(cc1)C)I,293.4,0.271777616,0.2398,-8.0991,4.19002,NaN,NaN,NaN,Nan,NaN,-0.642,-8.172,3.5545,NaN,NaN,NaN,NaN,NaN,NaN,NaN
AJSXUHRFKZTOLM-UHFFFAOYSA-N,CCCCN(c1ccc2c(c1)oc1c2C(=O)C(c2c1cccc2)(Cc1ccccc1)Cc1ccccc1)CCCC,CN(c1ccc2c(c1)oc1c2C(=O)C(c2c1cccc2)(Cc1ccccc1)Cc1ccccc1)C,329.3,0.491497887,0.1322,-7.0611,3.80612,399.5623538688484,0.362987393,-0.9323,-7.3994,14.15365,-0.869,-7.896,3.31405,NaN,NaN,546.0,NaN,377.0,NaN,Acetonitrile
KVGVQTOQSNJTJI-UHFFFAOYSA-N,O=c1[nH]c(=O)c2c([nH]1)nn[nH]2,O=c1[nH]c(=O)c2c([nH]1)nn[nH]2,239.3,0.175823571,0.0844,-9.5542,1.31692,317.6638442364941,0.241828559,-1.8154,-9.6136,4.78926,-1.394,-10.084,1.2934,NaN,NaN,1538.4615384615386,NaN,263.0,NaN,NaN
HOOWDASBBDKZDZ-HMFYCAOWSA-N,OC[C@H]1O[C@H](C[C@@]1(O)n1nnc(c1)COc1ccc2c(c1)oc(=O)cc2)n1cc(C)c(=O)[nH]c1=O,OC[C@H]1O[C@H](C[C@@]1(O)n1nnc(c1)COc1ccc2c(c1)oc(=O)cc2)n1cc(C)c(=O)[nH]c1=O,276.7,0.353733227,-0.2997,-8.7947,6.45809,335.1830181278823,0.367076101,-1.4452,-8.8221,107.63067,-1.368,-9.452,4.20776,NaN,NaN,320,NaN,320,NaN,NaN
ZFZWDJSFNDDNEH-UHFFFAOYSA-N,c1ccc(cc1)c1nc2cc3[N-]c4ccccc4[N+](=c3cc2n(n1)c1ccccc1)c1ccccc1,c1ccc(cc1)c1nc2cc3[N-]c4ccccc4[N+](=c3cc2n(n1)c1ccccc1)c1ccccc1,569.5,0.535285137,-0.8478,-6.378,8.51201,654.2701762823413,0.474635252,-1.8033,-6.6148,57.90887,-1.535,-7.248,9.18926,NaN,NaN,635.0,NaN,613.0,NaN,NaN
JGGXMRCFUJMMJT-UHFFFAOYSA-N,O=c1ccc2c(o1)ccc(c2)N=Cc1ccccc1,O=c1ccc2c(o1)ccc(c2)N=Cc1ccccc1,297.8,0.350746883,-0.1492,-8.3505,5.85667,345.35988413789323,0.091664162,-0.9893,-8.4134,150.18334,-1.203,-9.088,5.65617,NaN,NaN,319,12400.0,319,12400.0,NaN
YHGBXMIXZIHQII-UHFFFAOYSA-N,CC(=O)CC(c1cccc(c1)Cl)O,CC(=O)CC(c1cccc(c1)Cl)O,257.4,8.875e-06,1.2791,-9.068,0.80632,331.77468130988404,1.3648e-05,0.0225,-9.1737,107.82512,-0.328,-9.781,1.54188,NaN,NaN,254,NaN,254,NaN,NaN
NORLTTPUKMYONS-UHFFFAOYSA-N,S=C(Nc1ccc(cc1)C(F)(F)F)NCc1c2ccccc2cc2c1cccc2,S=C(Nc1ccc(cc1)C(F)(F)F)NCc1c2ccccc2cc2c1cccc2,365.1,0.164000955,-0.4535,-7.6987,2.65287,408.6493025890035,0.000528243,-1.0119,-7.5564,252.37436,-1.599,-8.602,3.63309,NaN,NaN,430.0,8400,367.0,11500,DMSO
HICCJUZMDNQOMI-UHFFFAOYSA-N,Oc1nc(sc1c1ccccc1)c1ccccc1,Oc1nc(sc1c1ccccc1)c1ccccc1,320.9,0.876209764,0.003,-7.6436,1.27652,394.1010756691153,0.577435494,-0.8343,-7.4769,15.13934,-1.277,-8.614,1.8756,342.1575036130904,0.7087786451,362.0,NaN,353.0,NaN,Dioxane
DQQXTIVMHYPMJS-UHFFFAOYSA-N,CCN(c1ccc(cc1)C=Nc1nc(C#N)c(nc1C#N)N)CC,CCN(c1ccc(cc1)C=Nc1nc(C#N)c(nc1C#N)N)CC,359.6,0.411372569,-0.8361,-7.4868,4.72669,405.9731447462465,0.495525075,-1.3377,-7.6943,280.26948,-1.741,-8.101,4.23848,NaN,NaN,420.0,44400,412.0,44400,NaN
OCHNNZFPXJJBIB-UHFFFAOYSA-N,CCOC(=O)C1=C(c2ccccc2)N(C(=O)C1=CC=Cc1ccccc1)C,CCOC(=O)C1=C(c2ccccc2)N(C(=O)C1=CC=Cc1ccccc1)C,362.5,1.279071973,-0.569,-7.4495,4.52862,365.6272438970913,0.703889505,-1.0071,-7.8531,68.38568,-1.029,-8.711,4.92826,394.1762351664,0.9410155863,435,20200,435,20200,NaN
QPPBRPIAZZHUNT-UHFFFAOYSA-N,Nc1ccc(cc1)S(=O)(=O)Nc1nccc(n1)C,Nc1ccc(cc1)S(=O)(=O)Nc1nccc(n1)C,262.5,0.016706582,0.8841,-8.3517,7.22935,294.01043017667456,0.00650073,-0.2713,-8.8055,139.49911,-0.273,-9.049,7.60378,NaN,NaN,NaN,NaN,NaN,NaN,NaN
CVZZRHKPZWPEKM-UHFFFAOYSA-N,Cc1ccc(cc1)N=Nc1c(nc2n1nc(C)c1c2c(c2ccccc2)n(n1)c1ccccc1)c1ccc2c(c1)cccc2,Cc1ccc(cc1)N=Nc1c(nc2n1nc(C)c1c2c(c2ccccc2)n(n1)c1ccccc1)c1ccc2c(c1)cccc2,444.3,0.003350932,-0.4531,-7.3174,4.58341,530.0735288820165,0.003255499,-1.1668,-7.0251,76.48313,-1.325,-8.282,4.34927,NaN,NaN,430.0,NaN,300.0,NaN,NaN
PCQFYMFCEBVMLZ-UHFFFAOYSA-N,CCCCC(CN1c2ccc(cc2Sc2c1cccc2)C=Cc1cccc(c1)C=Cc1ccc2c(c1)Sc1c(N2CC(CCCC)CC)cccc1)CC,C(CN1c2ccc(cc2Sc2c1cccc2)C=Cc1cccc(c1)C=Cc1ccc2c(c1)Sc1c(N2CC(C)CC)cccc1)CC,346.5,0.815465647,0.2758,-7.0108,2.82723,325.759848674471,0.824735268,-0.0622,-7.3824,172.89626,-0.536,-7.812,1.35855,359.2911585987001,0.773953607,504.0,NaN,303.0,NaN,NaN
KUILINSBTLODKI-UHFFFAOYSA-N,CCC(=O)NC1=CC(=O)C(=O)c2c1cccc2,CCC(=O)NC1=CC(=O)C(=O)c2c1cccc2,491.4,6.6e-05,-1.2941,-9.0332,9.60576,505.8514826825935,0.000733919,-1.869,-9.0098,113.15943,-1.502,-9.465,9.23579,NaN,NaN,267,NaN,267,NaN,ethanol
QWZHDKGQKYEBKK-UHFFFAOYSA-N,O=c1oc2ccccc2cc1N,O=c1oc2ccccc2cc1N,286.9,0.428433204,0.409,-7.9131,3.75737,346.1312071622101,0.380297087,-0.9429,-8.1913,71.10249,-0.88,-8.618,3.5101,NaN,NaN,259,30984,259,30984,DMSO
WBWPSANNFOGIFF-UHFFFAOYSA-N,N#Cc1ccc2c(c1)c1ccccc1c(c2)C#N,N#Cc1ccc2c(c1)c1ccccc1c(c2)C#N,306.9,0.208019655,-0.9952,-8.9836,1.02342,341.9310491050846,0.01443254,-1.327,-8.4892,25.81822,-1.84,-9.59,0.76107,NaN,NaN,315,NaN,315,NaN,NaN
VFHVQBAGLAREND-UHFFFAOYSA-N,Cc1cc(C)c(c(c1)C)C(=O)P(=O)(c1ccccc1)c1ccccc1,Cc1cc(C)c(c(c1)C)C(=O)P(=O)(c1ccccc1)c1ccccc1,332.5,0.013025118,0.1559,-8.7845,1.32740,354.44310579046214,0.001542317,-0.1549,-8.6112,57.02026,-0.413,-8.631,1.62436,NaN,NaN,0,NaN,0,NaN,NaN
BUHQWGNCKUCJBL-UHFFFAOYSA-N,CCCCCCCCCOc1ccc(cc1)C1CC(=NN1c1ccc(c(c1)C)C)c1ccc(cc1)F,COc1ccc(cc1)C1CC(=NN1c1ccc(c(c1)C)C)c1ccc(cc1)F,319.1,0.948368293,0.672,-6.945,2.79070,338.1079858344796,0.4944272,-0.5859,-7.6149,178.80574,-0.628,-8.074,2.15506,332.20136383162594,0.6431887706,364,NaN,364,NaN,NaN
RZTILDDUQGGHPS-UHFFFAOYSA-N,CCOC(=O)c1cc2c(n1C)c1[nH]c(=O)c(cc1CC2)S(=O)(=O)c1ccccc1,CCOC(=O)c1cc2c(n1C)c1[nH]c(=O)c(cc1CC2)S(=O)(=O)c1ccccc1,347.9,0.876973049,-0.5638,-7.9897,8.96542,446.3074096670398,0.64201526,-1.9257,-8.2386,169.87583,-1.385,-8.975,8.52568,366.2212169819508,0.7074910127,381,41576,381,41576,NaN
XUIIKFGFIJCVMT-UHFFFAOYSA-N,OC(=O)C(Cc1cc(I)c(c(c1)I)Oc1cc(I)c(c(c1)I)O)N,OC(=O)C(Cc1cc(I)c(c(c1)I)Oc1cc(I)c(c(c1)I)O)N,288.4,0.003951093,0.3012,-8.543,4.15768,NaN,NaN,NaN,Nan,NaN,-1.084,-8.75,3.45833,NaN,NaN,NaN,NaN,NaN,NaN,NaN
GRSMWKLPSNHDHA-UHFFFAOYSA-N,O=C1OC(=O)c2c3c1cccc3ccc2,O=C1OC(=O)c2c3c1cccc3ccc2,304.8,0.202595193,-1.0508,-9.1249,7.09591,322.3718107267386,0.339530129,-1.7645,-9.0652,104.89615,-1.9,-9.965,7.5556,NaN,NaN,342.0,NaN,341.0,NaN,MOPS
NNYBQONXHNTVIJ-UHFFFAOYSA-N,CCC1(OCCc2c1[nH]c1c2cccc1CC)CC(=O)O,CCC1(OCCc2c1[nH]c1c2cccc1CC)CC(=O)O,264.5,0.111184401,1.7043,-7.4823,2.85618,311.43983523110694,0.013085111,-0.1624,-7.3495,105.71408,0.099,-8.145,1.93418,NaN,NaN,NaN,NaN,NaN,NaN,NaN
UOBCCKWEFWPWLA-UHFFFAOYSA-N,CCCCCCCCN1c2ccc(cc2Sc2c1ccc(c2)C=C(C(=O)O)C#N)c1ccc(cc1)N(c1ccc(cc1)C=C(C(=O)O)C#N)c1ccccc1,CN1c2ccc(cc2Sc2c1ccc(c2)C=C(C(=O)O)C#N)c1ccc(cc1)N(c1ccc(cc1)C=C(C(=O)O)C#N)c1ccccc1,354.4,0.763467909,-0.7887,-7.4883,11.02448,390.50141230079896,0.63252692,-1.3756,-7.5419,353.44199,-1.574,-8.084,3.99702,NaN,NaN,442.0,42000.0,319.0,29700.000000000004,NaN
CKHPIVDRZYDELV-FQEVSTJZSA-N,COC(=O)[C@H](Cc1ccc2c(c1)nc(o2)c1cnc2c(c1)cccc2)NC(=O)OC(C)(C)C,COC(=O)[C@H](Cc1ccc2c(c1)nc(o2)c1cnc2c(c1)cccc2)NC(=O)OC(C)(C)C,298.0,0.457952386,-0.3803,-8.3754,3.64507,354.03825929612697,0.823431665,-1.1366,-8.0182,144.06220,-1.489,-9.25,6.90361,NaN,NaN,344.0,NaN,241.0,NaN,NaN
ACVPYSJGLPCBOY-UHFFFAOYSA-N,O1CCN(CC1)c1ccc(c2c1nsn2)C=Cc1ccncc1,O1CCN(CC1)c1ccc(c2c1nsn2)C=Cc1ccncc1,421.2,0.264706982,-0.646,-7.4161,2.34768,522.6989814734555,0.146828294,-1.8655,-7.7652,150.62473,-1.687,-8.222,4.89052,NaN,NaN,454.0,20900.0,258.0,9900.0,NaN
LGYIELRCZRLZQS-UHFFFAOYSA-N,c1ccc(cc1)c1nnc(o1)c1ccn2c(c1)cc(n2)c1ccc2c(c1)cccc2,c1ccc(cc1)c1nnc(o1)c1ccn2c(c1)cc(n2)c1ccc2c(c1)cccc2,316.3,0.259164728,-0.306,-7.944,3.72071,397.25792504166503,0.604111868,-1.1857,-7.6475,147.10968,-1.493,-8.822,3.99731,NaN,NaN,351.0,NaN,290.0,NaN,Cyclohexane
BGNGWHSBYQYVRX-UHFFFAOYSA-N,O=Cc1ccc(cc1)N(C)C,O=Cc1ccc(cc1)N(C)C,293.9,8.2716e-05,0.6839,-7.8299,6.23414,357.5092226225596,1.7905e-05,-0.6315,-8.4575,69.48302,-0.288,-8.467,5.75071,NaN,NaN,352.0,NaN,240.0,NaN,ethanol
PRZSXZWFJHEZBJ-UHFFFAOYSA-N,Cc1cc(O)c(cc1C1(OS(=O)(=O)c2c1cccc2)c1cc(C(C)C)c(cc1C)O)C(C)C,Cc1cc(O)c(cc1C1(OS(=O)(=O)c2c1cccc2)c1cc(C(C)C)c(cc1C)O)C(C)C,244.4,0.034511206,0.6367,-8.3064,4.67555,300.2765764240825,0.060825208,-0.5759,-8.2487,238.60035,-0.741,-8.899,4.14519,NaN,NaN,596.0,NaN,435.0,NaN,NaN
NAWHOAHJAGDKBI-UHFFFAOYSA-N,CCCCCc1ccc(cc1)C(=C(C#N)C#N)C(=c1ccc(=C(C#N)C#N)cc1)c1ccc(cc1)N(CCCC)CCCC,Cc1ccc(cc1)C(=C(C#N)C#N)C(=c1ccc(=C(C#N)C#N)cc1)c1ccc(cc1)N(C)C,417.7,1.744056359,-1.9183,-7.6996,15.21784,423.4433005652448,1.324618895,-2.0621,-7.931,201.16423,-2.396,-8.702,12.38737,480.42853880435325,1.1688740482,706.0,NaN,696.0,NaN,NaN
LJIZUXQINHXGAO-FGZHOGPDSA-N,O[C@H]1CC(=O)O[C@@H](C1)C=Cc1c(nc(cc1c1ccc(cc1)F)c1ccccc1)C(C)C,O[C@H]1CC(=O)O[C@@H](C1)C=Cc1c(nc(cc1c1ccc(cc1)F)c1ccccc1)C(C)C,262.2,0.451001144,0.3776,-8.5219,3.39843,306.2094304902535,0.305500862,-0.2622,-8.2238,227.80260,-0.735,-9.321,3.30617,NaN,NaN,244,NaN,244,NaN,NaN
DHLIQZZHJBYOCA-UHFFFAOYSA-N,Fc1ccc(cc1)c1ccn(c1)C,Fc1ccc(cc1)c1ccn(c1)C,250.1,0.02037313,1.6158,-7.7783,4.16225,291.8648738359314,0.162770969,0.1837,-7.7736,91.61916,-0.005,-8.59,5.19975,NaN,NaN,264,12360,264,12360,NaN
JSQYKDOKOAGHBM-UHFFFAOYSA-N,C#CCCn1c(ccc1c1cccs1)c1cccs1,C#CCCn1c(ccc1c1cccs1)c1cccs1,276.2,0.735951538,0.9297,-7.5545,1.76500,353.53349987312134,0.436981488,-0.0496,-7.3024,46.87600,-0.644,-8.553,2.16766,NaN,NaN,309.0,NaN,289.0,NaN,NaN
XAIFDYMZPMLGPY-UHFFFAOYSA-N,c1ccc(cc1)c1nc2c(n1c1ccc(cc1)c1cccnc1)c1ccccc1c1c2cccc1,c1ccc(cc1)c1nc2c(n1c1ccc(cc1)c1cccnc1)c1ccccc1c1c2cccc1,300.9,0.218346265,0.2549,-7.4671,3.34727,368.1241045294052,0.322459363,-0.2816,-7.1181,31.26148,-0.868,-8.352,3.5253,NaN,NaN,360,NaN,360,NaN,NaN
FBCOUXHUVOBQEF-UHFFFAOYSA-N,COc1ccc2c(c1)cc(c1c2C=CC2(O1)N(CC(C)C)c1c(C2(C)C)cccc1)c1nc(c(o1)c1ccccc1)c1ccccc1,COc1ccc2c(c1)cc(c1c2C=CC2(O1)N(CC(C)C)c1c(C2(C)C)cccc1)c1nc(c(o1)c1ccccc1)c1ccccc1,352.4,0.20444193,0.0281,-7.3712,3.09438,387.32957952359783,0.282721739,-0.7106,-7.1769,136.42296,-1.144,-8.142,3.57642,NaN,NaN,396,NaN,396,NaN,Toluene
CLIIEOYMUJVEKX-UHFFFAOYSA-N,OCc1ccc2c(n1)c(Br)cc(c2)C#Cc1ccc(cc1)N(c1ccccc1)c1ccccc1,OCc1ccc2c(n1)c(Br)cc(c2)C#Cc1ccc(cc1)N(c1ccccc1)c1ccccc1,327.4,1.476989614,-0.2601,-7.2467,4.22291,364.12393070632504,0.792927089,-0.7783,-7.2327,690.93514,-1.28,-8.082,4.48864,NaN,NaN,379.0,27000.0,379.0,27000.0,NaN
VMOFUBNORFQKPS-UHFFFAOYSA-N,Cc1onc(c1)N=Nc1ccc(c2c1cccn2)O,Cc1onc(c1)N=Nc1ccc(c2c1cccn2)O,454.4,0.003813423,-0.7176,-8.0579,1.85159,512.9673082561178,0.00321095,-1.3927,-8.2236,38.88941,-1.507,-8.991,2.90724,NaN,NaN,490,NaN,490,NaN,Methanol
MRJFXBXISBMWSJ-UHFFFAOYSA-N,S=C(Nc1ccccc1)Nc1ccc(cc1)c1nnc(s1)Nc1ccc(cc1)Cl,S=C(Nc1ccccc1)Nc1ccc(cc1)c1nnc(s1)Nc1ccc(cc1)Cl,310.3,1.328741067,-0.1002,-7.8856,5.03305,399.43362888371024,0.000117112,-0.9162,-8.1191,135.46821,-1.742,-8.51,7.04951,345.5716400279822,0.088029111,453,NaN,453,NaN,NaN
UBNNJVRNPJVYBU-UHFFFAOYSA-N,c1ccc(cc1)C1(C=Cc2c(O1)ccc1c2cccc1)c1ccccc1,c1ccc(cc1)C1(C=Cc2c(O1)ccc1c2cccc1)c1ccccc1,323.3,0.232520082,0.3652,-7.6362,0.73411,349.7438601001514,0.245859218,-0.3519,-7.4543,16.33241,-0.736,-8.376,0.50404,NaN,NaN,425,NaN,425,NaN,toluene
USHSXCMBQPJHEF-UHFFFAOYSA-N,Clc1ccc(c(c1)C=Nc1ccccc1)O,Clc1ccc(c(c1)C=Nc1ccccc1)O,308.0,0.45072615,-0.2268,-8.2826,2.19940,356.58383205494295,0.00043063,-0.8162,-8.5866,183.25468,-0.974,-9.213,2.33548,NaN,NaN,602.0,NaN,375.0,NaN,NaN
XGPPDTKLRAEPKL-UHFFFAOYSA-N,CC(=O)C(=NNc1ccccc1C(=O)O)C(=O)C,CC(=O)C(=NNc1ccccc1C(=O)O)C(=O)C,358.4,0.001429647,-0.6486,-8.5665,1.86471,362.632928942684,0.017551853,-1.3537,-8.6262,79.91483,-1.174,-9.031,3.74851,NaN,NaN,416.0,4230,247.0,10650,NaN
ABUWFGPCVNFTMC-UHFFFAOYSA-N,COc1ccc2c(c1)cc1c(n2)nc(c(c1)C(=O)C)C,COc1ccc2c(c1)cc1c(n2)nc(c(c1)C(=O)C)C,351.1,0.086835068,-0.8606,-8.1633,6.93828,379.6209381674944,0.305633617,-1.4459,-8.1323,31.89059,-1.683,-8.849,7.14598,NaN,NaN,375,NaN,375,NaN,acetone
XHSCPNZBAKZXLD-LBPRGKRZSA-N,COC(=O)[C@H](Cc1c[nH]c2c1cccc2)NC(=O)CNC(=O)C(F)(F)F,COC(=O)[C@H](Cc1c[nH]c2c1cccc2)NC(=O)CNC(=O)C(F)(F)F,268.2,0.080247409,1.0798,-8.0646,2.90644,311.98842074862523,0.00279439,-0.9722,-7.8961,156.58012,-0.466,-8.886,4.41218,NaN,NaN,284,NaN,284,NaN,NaN
FBMQNRKSAWNXBT-UHFFFAOYSA-N,Nc1ccc(c2c1C(=O)c1ccccc1C2=O)N,Nc1ccc(c2c1C(=O)c1ccccc1C2=O)N,422.6,0.338345697,-0.7472,-7.2464,2.79193,452.4970744726411,0.329406658,-1.701,-7.8329,10.74372,-1.385,-7.878,2.89335,NaN,NaN,544,11220,544,11220,acetonitrile
ASLDJSASBYHSQR-UHFFFAOYSA-N,CCOC(=O)c1cc2c(n1C)c1nc(ncc1CCC2)Nc1ccccc1,CCOC(=O)c1cc2c(n1C)c1nc(ncc1CCC2)Nc1ccccc1,297.4,0.404012088,0.2564,-7.6934,2.40781,372.54867309346054,0.523884634,-0.9558,-7.837,30.93473,-0.708,-8.548,1.20258,NaN,NaN,NaN,NaN,NaN,NaN,NaN
QCFKYDQYGNAFEH-UHFFFAOYSA-N,N#CC(=C1C=C(C=Cc2scc(c2)Br)OC(=C1)C=Cc1scc(c1)Br)C#N,N#CC(=C1C=C(C=Cc2scc(c2)Br)OC(=C1)C=Cc1scc(c1)Br)C#N,352.3,0.786055269,-1.6113,-8.2605,9.93479,421.8584498315878,0.420656657,-2.0913,-7.9577,430.50695,-2.176,-9.176,8.76827,NaN,NaN,1601,NaN,1601,NaN,NaN
SYEPXWKRQMRKAG-UHFFFAOYSA-N,CC(=O)N=c1nc2c3ccccc3ncn2c2c1cccc2,CC(=O)N=c1nc2c3ccccc3ncn2c2c1cccc2,303.2,0.092883717,-0.3158,-8.4652,6.00310,330.3602408886322,0.136100887,-0.9077,-8.3456,40.26252,-1.302,-9.04,5.32645,NaN,NaN,390.0,NaN,313.0,NaN,Cl
PRIXBQUFWFHQKN-UHFFFAOYSA-N,CCCCCCCCCCCCn1c(=O)c2ccc(c3c2c(c1=O)ccc3)c1ccc(s1)c1ccc2c3c1cccc3c(=O)n(c2=O)CCCCCCCCCCCC,Cn1c(=O)c2ccc(c3c2c(c1=O)ccc3)c1ccc(s1)c1ccc2c3c1cccc3c(=O)n(c2=O)C,335.9,1.103203256,-1.0812,-8.4587,2.67448,356.58383205494295,0.760924063,-1.7574,-8.5015,61.68487,-1.904,-9.67,2.68612,NaN,NaN,399,NaN,399,NaN,NaN
UPVKPOHAMSCIFI-UHFFFAOYSA-N,CCNc1c2nc3c(F)c(F)c(c(c3nc2c(c(c1C(F)(F)F)F)F)F)C(F)(F)F,CCNc1c2nc3c(F)c(F)c(c(c3nc2c(c(c1C(F)(F)F)F)F)F)C(F)(F)F,454.1,0.103634678,-1.8754,-8.4498,3.58559,485.64120017823603,0.125881312,-2.9018,-8.8226,187.70817,-2.87,-9.368,6.57761,NaN,NaN,536,NaN,536,NaN,NaN
JEECHIFKVDBWCM-UHFFFAOYSA-N,CCOC(=O)c1c(N)sc(c1c1ccccc1)N=Nc1ccc(cc1)C#N,CCOC(=O)c1c(N)sc(c1c1ccccc1)N=Nc1ccc(cc1)C#N,460.6,0.000230378,-0.9514,-7.808,7.30508,548.8454998030264,0.000445757,-1.6669,-7.8611,163.11929,-1.575,-8.691,6.22293,NaN,NaN,501.0,NaN,482.0,NaN,DMSO
QRUDEWIWKLJBPS-UHFFFAOYSA-N,c1ccc2c(c1)[nH]nn2,c1ccc2c(c1)[nH]nn2,249.4,0.082218192,0.6121,-9.0531,4.04554,310.2707667805397,0.124899508,-0.7243,-8.8161,48.58051,-0.833,-9.654,4.38683,NaN,NaN,312.0,2447,273.0,2447,NaN
YVGGHNCTFXOJCH-UHFFFAOYSA-N,ClC(C(c1ccc(cc1)Cl)c1ccc(cc1)Cl)(Cl)Cl,ClC(C(c1ccc(cc1)Cl)c1ccc(cc1)Cl)(Cl)Cl,239.3,0.065502027,0.7129,-8.9554,0.95648,376.1656505021349,0.029594026,-2.5327,-9.1812,119.57404,-0.798,-9.88,1.55935,NaN,NaN,512.0,48639,256.0,48639,NaN
APRGMLIZHVBBML-UHFFFAOYSA-N,CCc1cccc(c1N=Cc1cc(C)cc(c1O)C(c1ccccc1)c1ccccc1)CC,CCc1cccc(c1N=Cc1cc(C)cc(c1O)C(c1ccccc1)c1ccccc1)CC,298.9,0.299368181,0.2921,-8.1206,1.99202,366.27532763812013,0.004435499,-0.4875,-8.1535,14.52112,-0.506,-8.741,3.01951,NaN,NaN,347.0,NaN,145.0,NaN,Toluene
PBWDJZWTOGIHIM-UHFFFAOYSA-N,CCCCC#Cc1ccc(s1)C#CCCCC,C#Cc1ccc(s1)C#C,270.4,0.694562676,0.0696,-8.3597,0.70521,359.7916378569462,0.478542133,-0.6046,-7.7629,34.48707,-1.125,-9.217,0.26496,NaN,NaN,305,NaN,305,NaN,NaN
ULIGTZWOEAYGAZ-UHFFFAOYSA-N,Cln1nc(Nc2ccc(cc2)S(=O)(=O)O)cc([nH]1)Nc1ccc2c(c1)c(O)c(c(c2)S(=O)(=O)O)N=Nc1ccc(cc1)S(=O)(=O)O,Cln1nc(Nc2ccc(cc2)S(=O)(=O)O)cc([nH]1)Nc1ccc2c(c1)c(O)c(c(c2)S(=O)(=O)O)N=Nc1ccc(cc1)S(=O)(=O)O,428.6,0.005082275,-1.8188,-8.8294,5.34820,550.5515026887374,0.001107555,-2.3693,-8.6897,202.62473,-2.324,-9.176,7.09109,NaN,NaN,511.2,NaN,511.2,NaN,NaN
RIZKWDCGXLBTQJ-UHFFFAOYSA-N,Cc1ccc2c(c1)N=CCC2=O,Cc1ccc2c(c1)N=CCC2=O,305.0,9.9763e-05,-0.0845,-8.9869,1.74619,350.83247992502453,2.092e-06,-0.7166,-8.7659,54.15742,-0.953,-9.615,1.36751,NaN,NaN,337.0,NaN,328.0,NaN,NaN
XQRDOGZBHACJQO-UHFFFAOYSA-N,CN(CCNc1ccc2c3c1cccc3c1c2nc2c(n1)cc(cc2)[N+](=O)[O-])C,CN(CCNc1ccc2c3c1cccc3c1c2nc2c(n1)cc(cc2)[N+](=O)[O-])C,358.3,0.146775334,-0.7141,-7.6317,12.38467,420.71326231932017,0.006082067,-2.2334,-7.9247,348.98547,-1.559,-8.361,14.75903,NaN,NaN,324,NaN,324,NaN,NaN
JTHKKMBGCUHJQB-UHFFFAOYSA-N,COc1nc(c(n1C)C#N)C#N,COc1nc(c(n1C)C#N)C#N,237.6,0.465658067,-0.0104,-9.1673,8.18872,307.6530977804061,0.286885112,-1.0482,-8.9176,39.81548,-1.187,-9.791,7.87638,NaN,NaN,271,NaN,271,NaN,NaN