inchikey,smi_pre,smi_post,lambda_sTDA (nm),f1_sTDA,lumo_dft,homo_dft,dmom_dft (D),lambda_z (nm),f1_z,lumo_z,homo_z,dmom_z (D),lumo_mopac,homo_mopac,dmom_mopac (D),lambda_tddft (nm),f1_tddft,lambda_exp_max (nm),epsilon_exp_max ,lambda_exp_min (nm),epsilon_exp_min ,solvent
OBROBUKIVFQLMI-UHFFFAOYSA-N,CCOc1nc2nc(ccc2c(c1C#N)c1ccccc1)c1ccccc1,CCOc1nc2nc(ccc2c(c1C#N)c1ccccc1)c1ccccc1,304.7,0.704129061,-0.6944,-8.5773,4.50021,345.5523924345141,0.566353788,-1.1059,-8.3917,89.36888,-1.531,-9.456,4.66955,NaN,NaN,365.0,NaN,234.0,NaN,NaN
NVMATSPSEAXUDN-UHFFFAOYSA-N,[O-][n+]1cccc2c1c1[n+]([O-])cccc1C2(C)C,[O-][n+]1cccc2c1c1[n+]([O-])cccc1C2(C)C,346.9,0.004887042,-0.0495,-7.8032,6.99264,455.9919029257215,0.000100582,-1.4452,-8.2564,118.16234,-0.994,-8.397,6.24932,NaN,NaN,330,NaN,330,NaN,NaN
CCLHROFBSWWOQO-UHFFFAOYSA-N,NCc1cccc(c1)C1CCN(CC1)C(=O)c1cncc(c1)CCc1ccccc1,NCc1cccc(c1)C1CCN(CC1)C(=O)c1cncc(c1)CCc1ccccc1,258.6,0.011016891,0.7713,-8.8337,6.38173,299.6959110599557,0.003865427,-0.1343,-8.6756,74.91108,-0.416,-9.34,6.24717,NaN,NaN,NaN,NaN,NaN,NaN,NaN
HAYVPXROFXYFSC-UHFFFAOYSA-N,COc1c2ccccc2c(c2c1c1cc(F)ccc1n2C)OC,COc1c2ccccc2c(c2c1c1cc(F)ccc1n2C)OC,349.5,0.125327759,0.2363,-7.1256,3.54112,365.0889234555467,0.094533915,-0.4643,-7.3365,95.67790,-0.942,-7.909,2.99213,NaN,NaN,321.0,NaN,236.0,NaN,CH 2 Cl
FJKROLUGYXJWQN-UHFFFAOYSA-N,Oc1ccc(cc1)C(=O)O,Oc1ccc(cc1)C(=O)O,243.8,0.005900597,0.7922,-8.8684,1.80762,292.1399585426571,0.000863226,-0.7844,-9.2704,30.91601,-0.681,-9.769,2.12333,NaN,NaN,191,NaN,191,NaN,NaN
NJFYCNRCCCJZEY-UHFFFAOYSA-N,Brc1ccc2c(c1)CCc1c2c(nc2c1c1ccc(cc1CC2)Br)c1ccc(cc1)[N+](=O)[O-],Brc1ccc2c(c1)CCc1c2c(nc2c1c1ccc(cc1CC2)Br)c1ccc(cc1)[N+](=O)[O-],317.1,0.002476207,-0.7038,-8.3588,5.69231,423.58796858730324,0.013442186,-2.4816,-8.2339,256.59104,-1.517,-9.212,6.26407,NaN,NaN,350.0,65099.99999999999,288.0,22900.0,chloroform
RSASFCDRQWAMSP-UHFFFAOYSA-N,N#Cc1c(N)sc2c1c1ccccc1C2=Nc1ccc(cc1)[N+](=O)[O-],N#Cc1c(N)sc2c1c1ccccc1C2=Nc1ccc(cc1)[N+](=O)[O-],401.2,0.086666852,-1.0438,-8.2484,2.59260,480.74524391432203,0.101229853,-2.2823,-8.1058,174.90284,-1.767,-8.987,4.13555,NaN,NaN,464,NaN,464,NaN,acetone
CUKCNSHVPUINNW-UHFFFAOYSA-N,CCCCCCc1cc(sc1C=Cc1ccc(cc1)N(c1ccc(cc1)C)c1ccc(cc1)C)C=C(C(=O)O)C#N,Cc1cc(sc1C=Cc1ccc(cc1)N(c1ccc(cc1)C)c1ccc(cc1)C)C=C(C(=O)O)C#N,395.1,2.205793515,-1.0551,-7.1063,9.45267,439.81624123981436,0.900958401,-1.6705,-7.2145,569.03830,-1.761,-7.912,6.32782,431.0844303370517,1.8563553388,535.0,NaN,0.0,NaN,NaN
PREHMTVLDNFFEJ-UHFFFAOYSA-N,CCc1nccnc1C(=O)C=Cc1ccc(cc1)N(C)C,CCc1nccnc1C(=O)C=Cc1ccc(cc1)N(C)C,349.5,0.004911559,-0.2924,-7.3976,5.91155,398.7912460775287,0.017580211,-1.113,-7.9402,95.57119,-1.048,-8.245,4.72371,NaN,NaN,295,NaN,295,NaN,ethanol
PNPQMIPDDIKYOU-UHFFFAOYSA-N,[O-][N+](=O)c1ccc(cc1)c1nnc(o1)c1ccc(cc1)n1c2ccccc2c2c1cccc2,[O-][N+](=O)c1ccc(cc1)c1nnc(o1)c1ccc(cc1)n1c2ccccc2c2c1cccc2,318.6,0.001938275,-1.1006,-7.9142,4.17847,423.87760138633735,0.007433318,-2.6751,-7.9366,377.29304,-2.044,-8.567,5.71512,NaN,NaN,375.0,9640,333.0,1100,Toluene
NTRKEYLXTPNPIY-UHFFFAOYSA-N,CCN(c1ccc(cc1)c1oc2ccccc2c(=O)c1O)CC,CCN(c1ccc(cc1)c1oc2ccccc2c(=O)c1O)CC,319.2,0.950529915,0.0334,-7.2231,5.34779,362.84518116916496,0.347207404,-0.9908,-7.7311,173.27263,-0.802,-8.036,4.67806,346.64409374350504,0.8660658915,574.5,NaN,401.0,NaN,Acetonitrile
AZRUSZFISRHNSP-UHFFFAOYSA-N,[O-][N+](=Cc1ccc2c(c1)Sc1c(N2C)cccc1)c1cccc(c1)C(=O)C,[O-][N+](=Cc1ccc2c(c1)Sc1c(N2C)cccc1)c1cccc(c1)C(=O)C,330.1,0.677499704,-0.1093,-7.2629,2.23162,392.35505824526473,0.404676375,-1.1248,-7.7691,56.66879,-1.206,-7.638,1.67317,NaN,NaN,314,NaN,314,NaN,dichloromethane
FDAXUPKBAVRFSW-UHFFFAOYSA-N,c1ccc2c(c1)c1cc3cc4ccccc4nc3nc1C2,c1ccc2c(c1)c1cc3cc4ccccc4nc3nc1C2,342.3,0.198721424,-0.7066,-8.0046,3.58274,370.4338165685798,0.646017856,-1.1106,-7.7941,35.29650,-1.542,-8.935,4.1301,NaN,NaN,371,NaN,371,NaN,acetone
XYPVDXBYKSIIEO-UHFFFAOYSA-N,CCN(c1ccc2c(c1)oc1c(c2)c2nc3c(n2c(=NC2=CC(=S(=O)=O)C(C=C2)C(=O)O)c1C#N)cccc3)CC,CCN(c1ccc2c(c1)oc1c(c2)c2nc3c(n2c(=NC2=CC(=S(=O)=O)C(C=C2)C(=O)O)c1C#N)cccc3)CC,394.5,1.162712931,-1.113,-7.2308,11.81071,552.022254699482,0.218079069,-2.2731,-7.8373,457.08429,-1.694,-8.041,12.48241,NaN,NaN,570.0,NaN,565.0,NaN,Acetonitrile
WFAOIAICMJWOFA-UHFFFAOYSA-N,Oc1ccc(cc1c1nc2CCc3c(c2c2c1c1ccccc1CC2)cccc3)[N+](=O)[O-],Oc1ccc(cc1c1nc2CCc3c(c2c2c1c1ccccc1CC2)cccc3)[N+](=O)[O-],311.4,0.002724587,-0.1769,-8.1494,7.13525,471.78157688547816,0.023811597,-2.3148,-7.785,227.72001,-1.174,-8.923,6.84237,NaN,NaN,342.0,30000.0,288.0,17000.0,dichloromethane
RAXONAHYRCWRLO-CTHBEMJXSA-N,OC[C@H]([C@H]([C@@H]([C@H](C=O)O)O)OC(=O)C=Cc1ccc(c(c1)O)O)O,OC[C@H]([C@H]([C@@H]([C@H](C=O)O)O)OC(=O)C=Cc1ccc(c(c1)O)O)O,281.9,0.558287274,0.0488,-8.1031,1.68946,331.0659503484744,8.7534e-05,-1.0934,-8.5696,60.65715,-1.088,-9.114,1.02668,NaN,NaN,299,NaN,299,NaN,NaN
RONUYXVQOBPICL-UHFFFAOYSA-N,CCCCCCCCCCCCOc1c(OCCCCCCCCCCCC)c(C#Cc2ccc(c(c2)OCCCCCCCCCCCC)OCCCCCCCCCCCC)c2c(c1C#Cc1ccc(c(c1)OCCCCCCCCCCCC)OCCCCCCCCCCCC)nsn2,COc1c(OC)c(C#Cc2ccc(c(c2)OC)OC)c2c(c1C#Cc1ccc(c(c1)OC)OC)nsn2,391.5,1.391568999,-0.9436,-7.445,3.72643,545.4650171821543,0.524657833,-1.9236,-7.3297,140.01160,-1.847,-8.181,0.12284,NaN,NaN,428,NaN,428,NaN,NaN
XWELIZPGHKFXBZ-UHFFFAOYSA-N,O=C1c2cc(ccc2C(=O)C1c1ccc2c(n1)c(ccc2)N1C(=O)c2c(C1=O)cc(cc2)C(C)(C)C)C(C)(C)C,O=C1c2cc(ccc2C(=O)C1c1ccc2c(n1)c(ccc2)N1C(=O)c2c(C1=O)cc(cc2)C(C)(C)C)C(C)(C)C,314.2,0.001915337,-0.156,-8.7803,3.74265,372.3249201366476,0.006254376,-1.3287,-8.2928,248.05287,-1.06,-8.974,4.96116,NaN,NaN,456.0,34872,430.0,34872,PGMEA
PTHZEOCCKNWFKY-UHFFFAOYSA-N,COC(=O)CCCCCn1c(=O)c2cccc3c2c(c1=O)ccc3Nc1cccc(c1)F,COC(=O)Cn1c(=O)c2cccc3c2c(c1=O)ccc3Nc1cccc(c1)F,353.7,0.523703149,-0.8548,-8.0507,7.99591,378.34665366342284,0.432919401,-1.7083,-8.2988,135.92334,-1.72,-8.871,3.79567,NaN,NaN,442.0,NaN,426.0,NaN,DMSO
YZYLMMBZCXTXLW-UHFFFAOYSA-N,COc1cccc2c1oc(=O)c(c2)C(=O)C,COc1cccc2c1oc(=O)c(c2)C(=O)C,317.0,9.1426e-05,-0.7772,-9.0357,3.48940,354.6458764459487,0.003430104,-1.7155,-9.1742,37.44609,-1.611,-9.223,2.39066,NaN,NaN,317,NaN,317,NaN,NaN
XKNAXEZQSIDHGY-HPBNYZBVSA-N,O=C(Cc1cc(=O)oc2c1c1ccccc1cc2)NCc1nnn(c1)C([C@H]1O[C@H](C[C@@H]1O)n1cc(C)c(=O)[nH]c1=O)O,O=C(Cc1cc(=O)oc2c1c1ccccc1cc2)NCc1nnn(c1)C([C@H]1O[C@H](C[C@@H]1O)n1cc(C)c(=O)[nH]c1=O)O,315.6,0.319119531,-0.8794,-8.5096,13.23525,367.1430216331172,0.351907414,-1.5952,-8.5537,238.06564,-1.677,-9.442,7.0971,NaN,NaN,350.0,NaN,319.0,NaN,NaN
XEUQVTHGXKXLBB-UHFFFAOYSA-N,Clc1cc(Cl)c2c(c1)c1cc(Cl)cc(c1[nH]2)Cl,Clc1cc(Cl)c2c(c1)c1cc(Cl)cc(c1[nH]2)Cl,298.8,0.065339097,-0.01,-8.2749,1.14751,323.1279604000616,0.014628101,-1.0884,-8.9648,30.22836,-1.422,-9.003,1.01818,NaN,NaN,378.0,NaN,298.0,NaN,NaN
OHCXGYNAJFVMNX-UHFFFAOYSA-N,CCn1c2ccc(cc2c2c1ccc(c2)N=Nc1nc2c(s1)cc(cc2)[N+](=O)[O-])N=Nc1nc2c(s1)cc(cc2)[N+](=O)[O-],CCn1c2ccc(cc2c2c1ccc(c2)N=Nc1nc2c(s1)cc(cc2)[N+](=O)[O-])N=Nc1nc2c(s1)cc(cc2)[N+](=O)[O-],469.3,0.000155945,-1.6596,-8.261,12.72533,519.1968107433152,0.009660089,-2.4453,-8.5319,419.47131,-2.157,-9.115,12.61852,NaN,NaN,499,NaN,499,NaN,DMF
RMCAUKPOUZTMOV-UHFFFAOYSA-N,O=c1nc2c(s1)ccccc2,O=c1nc2c(s1)ccccc2,372.0,0.06502573,-1.0119,-8.593,7.68091,350.83247992502453,0.200663631,-1.4569,-8.7965,112.61514,-1.787,-9.101,7.19627,NaN,NaN,391.0,NaN,341.0,NaN,NaN
RLSSMJSEOOYNOY-UHFFFAOYSA-N,Cc1cccc(c1)O,Cc1cccc(c1)O,242.5,0.039135277,1.7491,-8.3742,1.65026,277.24552416257524,0.013195672,0.6297,-8.622,44.34723,0.158,-9.103,1.98225,NaN,NaN,700,NaN,700,NaN,NaN
HYWWLLKNHOACHC-UHFFFAOYSA-N,Cc1nn2c(c1N=Nc1ccc(cc1)[N+](=O)[O-])[nH]c(c2N=Nc1ccccc1)c1ccccc1,Cc1nn2c(c1N=Nc1ccc(cc1)[N+](=O)[O-])[nH]c(c2N=Nc1ccccc1)c1ccccc1,442.9,0.0054037,-1.0933,-7.769,8.50066,531.209076287505,0.002518567,-2.3242,-7.776,287.82611,-1.74,-8.838,8.84088,NaN,NaN,552.0,NaN,456.0,NaN,NaN
NWKYITWVSJIWKY-UHFFFAOYSA-N,CCCCCCn1c2ccc(cc2c2c1ccc(c2)c1ccc(s1)c1ccccc1)c1ccc(s1)c1ccccc1,Cn1c2ccc(cc2c2c1ccc(c2)c1ccc(s1)c1ccccc1)c1ccc(s1)c1ccccc1,307.2,1.754896995,0.5046,-7.2486,1.83507,355.1538195517149,0.97668423,-0.1548,-7.2732,47.04776,-0.73,-8.118,2.4556,324.175581784342,1.6511101615,639.05,NaN,343.25,NaN,THF
HRCWTQZHHNLEKD-UHFFFAOYSA-N,c1ccc(cc1)n1nc2c(c1)c1nc3c(n1c(c2)c1ccccc1)cccc3,c1ccc(cc1)n1nc2c(c1)c1nc3c(n1c(c2)c1ccccc1)cccc3,287.5,0.743990678,0.3394,-7.6837,2.06932,358.9583045903406,0.659374053,-0.701,-7.5978,36.54718,-1.022,-8.417,2.07868,NaN,NaN,339.0,NaN,200.0,NaN,NaN
FDKIRFLAAVKGKC-UHFFFAOYSA-N,CCCCCCOc1ccc(cc1)N(c1ccc(cc1)C=C(C(=O)O)C#N)c1ccc(cc1)OCCCCCC,COc1ccc(cc1)N(c1ccc(cc1)C=C(C(=O)O)C#N)c1ccc(cc1)OC,346.5,1.209490354,-0.5491,-7.2959,9.25565,395.61007787333654,0.639665911,-1.4016,-7.5722,188.51038,-1.295,-8.117,6.76625,372.7614714207013,1.0407324318,441,26400.0,441,26400.0,NaN
LCZUOKDVTBMCMX-UHFFFAOYSA-N,Cc1ncc(nc1)C,Cc1ncc(nc1)C,295.3,0.011103007,0.8339,-9.2171,0.00005,346.6150360791268,0.003639413,-0.2777,-8.6033,0.00298,-0.488,-9.859,0.00058,NaN,NaN,930,NaN,930,NaN,NaN
AOOMUZYUGGZAIX-UHFFFAOYSA-N,N#CC(=Cc1ccc(s1)c1ccc(s1)c1ccc(cc1)N(c1ccc(cc1)C#Cc1ccccc1)c1ccc(cc1)C#Cc1ccccc1)C(=O)O,N#CC(=Cc1ccc(s1)c1ccc(s1)c1ccc(cc1)N(c1ccc(cc1)C#Cc1ccccc1)c1ccc(cc1)C#Cc1ccccc1)C(=O)O,392.6,2.302493283,-1.2195,-7.1917,7.89421,487.9346651141427,1.110808989,-1.8163,-7.1703,868.03911,-1.977,-8.152,4.88008,430.60533118896757,1.9287960101,445.0,23600,439.0,23600,NaN
KIAWERYQAWJXBZ-UHFFFAOYSA-N,COc1ccc2c(c1)oc(=O)cc2CNc1ccccc1,COc1ccc2c(c1)oc(=O)cc2CNc1ccccc1,280.0,0.323552128,0.061,-8.0051,5.64796,324.9913457549244,0.36017659,-1.0531,-8.4318,143.89713,-1.087,-8.679,2.79082,NaN,NaN,321,NaN,321,NaN,NaN
XVOIIIIGGHMELC-UHFFFAOYSA-N,OCCc1ccc2c(c1)sc(n2)Nc1ccc2c(c1)nc1c(c2)cc(cc1)[N+](=O)[O-],OCCc1ccc2c(c1)sc(n2)Nc1ccc2c(c1)nc1c(c2)cc(cc1)[N+](=O)[O-],363.3,0.378828432,-1.1552,-7.969,5.66598,426.3555653559273,0.267096396,-2.5061,-8.0255,151.64562,-2.047,-8.842,6.7983,NaN,NaN,437,NaN,437,NaN,NaN
MIEGXDVWEMSFFT-UHFFFAOYSA-N,N#Cc1ccc(cc1)c1[nH]c(=O)c2c1c(=O)[nH]c2c1ccc(cc1)C#N,N#Cc1ccc(cc1)c1[nH]c(=O)c2c1c(=O)[nH]c2c1ccc(cc1)C#N,423.3,1.021185803,-1.9662,-8.1435,0.00203,429.90360057386846,0.742637507,-2.1414,-8.3189,0.02114,-2.235,-9.119,0.00253,460.8049989193468,0.6723150688,565.0,NaN,539.0,NaN,NaN
OOKZDQLKJZHBRQ-UHFFFAOYSA-N,Nc1sc(c(n1)c1ccc(cc1)NC(=O)c1ccccc1)N=Nc1ccc(cc1)[N+](=O)[O-],Nc1sc(c(n1)c1ccc(cc1)NC(=O)c1ccccc1)N=Nc1ccc(cc1)[N+](=O)[O-],466.0,0.027245322,-1.1799,-7.8005,10.48078,561.5226377060853,0.013955308,-2.285,-7.8121,288.76134,-1.837,-8.651,10.3067,NaN,NaN,537,NaN,537,NaN,DMSO
IERYFYPMSBTQAK-UHFFFAOYSA-N,COc1cc(ccc1OC)c1nn2c(c1)cc(cc2)c1nnc(o1)c1ccccc1,COc1cc(ccc1OC)c1nn2c(c1)cc(cc2)c1nnc(o1)c1ccccc1,315.7,0.268170497,-0.2662,-8.0906,3.77990,396.7494348976117,0.55066127,-1.1757,-7.6898,52.72075,-1.463,-8.367,6.16368,NaN,NaN,340.0,NaN,298.0,NaN,Cyclohexane
JYTHPPHTNIUFLC-UHFFFAOYSA-N,O=c1[nH]c2nc3c(n2c(c1N=Nc1ccccc1[N+](=O)[O-])N)cccc3,O=c1[nH]c2nc3c(n2c(c1N=Nc1ccccc1[N+](=O)[O-])N)cccc3,427.2,0.015726098,-0.6057,-8.3078,4.02469,572.4108882987242,0.001421014,-2.4669,-8.262,58.70793,-1.72,-9.205,2.30637,NaN,NaN,419.0,NaN,340.0,NaN,Chloroform
YYVYAPXYZVYDHN-UHFFFAOYSA-N,O=C1C(=O)c2ccccc2c2c1cccc2,O=C1C(=O)c2ccccc2c2c1cccc2,469.6,2.3601e-05,-1.2682,-8.9725,6.05426,482.4287875700532,0.000207298,-1.7196,-8.7709,81.98178,-1.487,-9.584,5.08896,NaN,NaN,554.0,NaN,460.0,NaN,ACN
PQPVDGIPVNBSSM-UHFFFAOYSA-N,OCC=C(c1cccc(c1)C(F)(F)F)c1cccc(c1)C(F)(F)F,OCC=C(c1cccc(c1)C(F)(F)F)c1cccc(c1)C(F)(F)F,246.0,0.108835501,0.2982,-8.9244,2.41500,281.2708675260972,0.035181254,-0.3535,-8.8125,165.97292,-0.948,-9.982,2.72842,NaN,NaN,NaN,NaN,NaN,NaN,NaN
ZKHQWZAMYRWXGA-UHFFFAOYSA-N,OC1C(COP(=O)(OP(=O)(OP(=O)(O)O)O)O)OC(C1O)n1cnc2c1ncnc2N,OC1C(COP(=O)(OP(=O)(OP(=O)(O)O)O)O)OC(C1O)n1cnc2c1ncnc2N,241.8,0.29829241,-0.0117,-9.5171,5.94319,334.18921403100717,0.212546943,-0.5033,-7.2257,254.02705,-1.667,-9.046,3.74068,NaN,NaN,NaN,NaN,NaN,NaN,NaN
SOEDDPWFFXPION-UHFFFAOYSA-N,COc1ccc2c(c1)[n+](CCCS(=O)(=O)[O-])c(s2)N=c1sc2c(n1C)ccc(c2)OC,COc1ccc2c(c1)[n+](CCCS(=O)(=O)[O-])c(s2)N=c1sc2c(n1C)ccc(c2)OC,306.5,0.881100097,-0.2233,-7.8804,13.10546,376.73715711183127,0.266756773,-1.3759,-8.2507,66.81363,-1.361,-8.541,9.94611,324.582944157389,0.5749551226,642.0,NaN,634.0,NaN,NaN
QUOMSYSCLJKDBQ-UHFFFAOYSA-N,CCCCCCOc1cc(C2=CC=C(C2)C=C(C(=O)O)C#N)c(cc1c1ccc(s1)c1ccc(cc1)N(c1ccccc1)c1ccccc1)OCCCCCC,COc1cc(C2=CC=C(C2)C=C(C(=O)O)C#N)c(cc1c1ccc(s1)c1ccc(cc1)N(c1ccccc1)c1ccccc1)OC,415.6,1.748675267,-1.0143,-7.1114,5.00230,472.1408926332965,0.906861087,-1.5986,-7.3231,453.32820,-1.717,-8.108,5.11883,451.6728342777393,1.4864809274,478,NaN,478,NaN,NaN
ZINWXLDVQYPXFT-UHFFFAOYSA-N,CCOc1ccccc1N=Nc1ccc(c(c1)C=Nc1ccccc1O)O,CCOc1ccccc1N=Nc1ccc(c(c1)C=Nc1ccccc1O)O,425.1,0.042447128,-0.4889,-7.9926,2.21992,530.0735288820165,0.015015729,-1.2934,-8.075,85.18558,-1.134,-8.67,2.75009,NaN,NaN,487.0,NaN,353.0,NaN,NaN
OFGLHMWQRJCPGA-UHFFFAOYSA-N,Nc1nc2n(c(c1N=Nc1ccccc1Cl)N)nc(c2N=Nc1nccs1)N,Nc1nc2n(c(c1N=Nc1ccccc1Cl)N)nc(c2N=Nc1nccs1)N,431.5,0.000176251,-0.7446,-7.4524,4.90296,523.3609050464485,0.00787168,-1.6537,-7.4531,149.65936,-1.535,-8.375,6.5466,NaN,NaN,486,NaN,486,NaN,NaN
ZQICEUHANAFUAM-UHFFFAOYSA-N,CCC(c1cccc2c1cccc2)O,CCC(c1cccc2c1cccc2)O,288.9,0.077127821,0.6091,-8.144,1.22171,314.12262073854487,0.004416644,-0.1372,-7.9224,33.84404,-0.654,-8.946,1.65023,NaN,NaN,NaN,NaN,NaN,NaN,NaN
RZEIBRQVZGOVPO-UHFFFAOYSA-N,Clc1ccc(cc1)C(=O)On1c(=O)c2cccc3c2c(c1=S)ccc3,Clc1ccc(cc1)C(=O)On1c(=O)c2cccc3c2c(c1=S)ccc3,404.9,0.001037874,-1.3218,-8.6536,5.02461,540.4716582628756,0.000603643,-1.9084,-8.6534,259.41518,-2.04,-8.893,5.44305,NaN,NaN,466.0,NaN,390.0,NaN,NaN
ZKHQWZAMYRWXGA-KQYNXXCUSA-N,O[C@@H]1[C@@H](COP(=O)(OP(=O)(OP(=O)(O)O)O)O)O[C@H]([C@@H]1O)n1cnc2c1ncnc2N,O[C@@H]1[C@@H](COP(=O)(OP(=O)(OP(=O)(O)O)O)O)O[C@H]([C@@H]1O)n1cnc2c1ncnc2N,243.3,0.252111779,0.5602,-9.0123,7.88502,304.8541883587501,0.20792339,-0.6527,-8.4398,286.11365,-1.56,-9.026,3.00888,NaN,NaN,340,NaN,340,NaN,NaN
CMBCQFBNEBXRKG-UHFFFAOYSA-N,Cc1ccc2c(c1)sc(n2)N=Nc1c(N)nn2c1nc(N)c(c2N)N=Nc1nc2c(s1)cccc2,Cc1ccc2c(c1)sc(n2)N=Nc1c(N)nn2c1nc(N)c(c2N)N=Nc1nc2c(s1)cccc2,442.9,5.4486e-05,-1.2178,-7.5126,3.48709,538.5933901194772,0.006547664,-2.092,-7.4456,136.08024,-1.851,-8.438,4.05142,NaN,NaN,524,NaN,524,NaN,NaN
FBPRBZALVYSSSK-UHFFFAOYSA-N,CCN(c1ccc2c(c1)oc(=O)c(c2O)N=Nc1ccc(cc1)[N+](=O)[O-])CC,CCN(c1ccc2c(c1)oc(=O)c(c2O)N=Nc1ccc(cc1)[N+](=O)[O-])CC,410.5,0.004947249,-1.2685,-7.9111,12.98585,527.8169365921824,2.4543e-05,-2.5296,-8.1318,366.41765,-1.754,-8.829,14.50098,NaN,NaN,485.0,NaN,470.0,NaN,MeOH
HFNRVJWAPPAHKP-UHFFFAOYSA-N,[O-][N+](=O)c1ccc2c(c1)oc(n2)c1ccc(nc1)c1oc2c(n1)ccc(c2)[N+](=O)[O-],[O-][N+](=O)c1ccc2c(c1)oc(n2)c1ccc(nc1)c1oc2c(n1)ccc(c2)[N+](=O)[O-],317.8,1.883934842,-1.5385,-9.1409,4.75966,420.00067210536474,0.019651209,-2.7277,-8.954,104.45356,-2.6,-10.108,2.22991,324.76148730712066,0.0001513298,354.0,NaN,278.0,NaN,NaN
VWXUUMSJRDDBHI-UHFFFAOYSA-N,ClCCNc1ccc2c3c1cccc3C(=O)c1c2cccc1,ClCCNc1ccc2c3c1cccc3C(=O)c1c2cccc1,359.5,0.362599738,-0.724,-7.8398,3.21445,385.52300499223776,0.156706793,-1.3476,-7.8294,127.64350,-1.302,-8.286,5.66306,NaN,NaN,482,NaN,482,NaN,C6H6
MRUFLAJEQYGOLE-UHFFFAOYSA-N,COc1ccc(cc1)C=c1oc(=Cc2ccc(cc2)N(C)C)c2c1cccc2,COc1ccc(cc1)C=c1oc(=Cc2ccc(cc2)N(C)C)c2c1cccc2,370.1,0.81024396,0.1827,-6.5674,2.63102,364.23090013367704,0.267732088,-0.333,-7.1943,42.90117,-0.891,-7.698,1.48661,387.17232304668346,0.6679186071,407,30600.0,407,30600.0,NaN
MCVPGJCHZIEYLN-UHFFFAOYSA-N,Fc1ccccc1C1(C=Cc2c(O1)ccc1c2cccc1)c1ccccc1,Fc1ccccc1C1(C=Cc2c(O1)ccc1c2cccc1)c1ccccc1,324.8,0.220225303,0.3647,-7.62,1.01146,347.3919820832269,0.243309144,-0.3248,-7.4482,50.71985,-0.777,-8.392,1.18089,NaN,NaN,421,NaN,421,NaN,NaN
GACDQMDRPRGCTN-KQYNXXCUSA-N,O[C@@H]1[C@H](OP(=O)(O)O)[C@H](O[C@H]1n1cnc2c1ncnc2N)COP(=O)(OS(=O)(=O)O)O,O[C@@H]1[C@H](OP(=O)(O)O)[C@H](O[C@H]1n1cnc2c1ncnc2N)COP(=O)(OS(=O)(=O)O)O,241.2,0.232917213,0.2803,-9.3888,5.26359,303.36236458405597,0.174050874,-1.9698,-8.8005,180.29358,-1.162,-9.104,2.67728,NaN,NaN,588.0,NaN,410.0,NaN,NaN
BICXZHFCOXUDRS-UHFFFAOYSA-N,CCC[Si](c1cc2ccc3c4c2c(c1C(=O)NC(C)(C)C)ccc4ccc3)(CCC)CCC,CCC[Si](c1cc2ccc3c4c2c(c1C(=O)NC(C)(C)C)ccc4ccc3)(CCC)CCC,336.0,0.289498211,-0.0532,-7.5259,3.26514,361.25931936335564,0.001586005,-0.7614,-7.4018,92.28579,-1.154,-8.363,3.52507,NaN,NaN,460.0,NaN,301.0,NaN,NaN
XZZUYWNTUGMJMI-UHFFFAOYSA-N,O=C1N(Cc2ccccc2)C(=O)C(=C1c1c(C)sc2c1cccc2)c1c(C)sc2c1cccc2,O=C1N(Cc2ccccc2)C(=O)C(=C1c1c(C)sc2c1cccc2)c1c(C)sc2c1cccc2,359.6,0.148768965,-0.7712,-8.0637,1.10803,427.08990150018485,0.093330283,-1.7372,-8.1467,156.23701,-1.404,-8.505,0.98306,NaN,NaN,510.0,NaN,406.0,NaN,NaN
ZKQYDHRMFQDXAQ-UHFFFAOYSA-N,Cc1ccc2c(c1)oc(n2)c1ccc(c2c1cccc2)c1nc2c(o1)cc(cc2)C,Cc1ccc2c(c1)oc(n2)c1ccc(c2c1cccc2)c1nc2c(o1)cc(cc2)C,347.0,1.231947981,-0.5745,-7.7655,0.62280,382.07765302158293,0.875641809,-1.1483,-7.6531,17.41434,-1.492,-8.791,3.65542,NaN,NaN,360.0,NaN,280.0,NaN,NaN
NGWVOZNTRCCDMD-UHFFFAOYSA-N,S=c1n(cc(n1c1ccccc1)P(=S)(c1ccccc1)c1ccccc1)c1ccccc1,S=c1n(cc(n1c1ccccc1)P(=S)(c1ccccc1)c1ccccc1)c1ccccc1,273.1,0.01631094,0.5166,-7.4809,5.91265,388.1784546196107,0.000360272,-0.1465,-8.0439,128.64023,-0.606,-7.808,7.29498,NaN,NaN,230,NaN,230,NaN,NaN
OQOLWJFAJYFWHI-UHFFFAOYSA-N,CC(n1c(cn(c1=S)C(C)C)P(c1ccccc1)c1ccccc1)C,CC(n1c(cn(c1=S)C(C)C)P(c1ccccc1)c1ccccc1)C,257.6,0.117854112,0.8597,-7.173,5.71353,376.27981306677896,4.9368e-05,0.281,-7.8265,94.50952,-0.71,-7.766,6.90656,NaN,NaN,268,NaN,268,NaN,NaN
RHQQKBORWXORSY-UHFFFAOYSA-N,C[Si]1(c2ccccc2)C(=C(C(=C1[Si](c1ccccc1)(C)C)c1ccccc1)c1ccccc1)[Si](c1ccccc1)(C)C,C[Si]1(c2ccccc2)C(=C(C(=C1[Si](c1ccccc1)(C)C)c1ccccc1)c1ccccc1)[Si](c1ccccc1)(C)C,283.6,0.242292256,0.2655,-8.3661,0.60722,291.24782336270533,0.196189198,0.5362,-7.7812,18.71366,0.002,-8.983,0.81862,NaN,NaN,311,NaN,311,NaN,NaN
RDIYWPDOUFCPIH-UHFFFAOYSA-N,CCCCCCCCCCCCOc1c(OCCCCCCCCCCCC)c(C#Cc2ccc(c(c2)OCCCCCCCCCCCC)OCCCCCCCCCCCC)c2c(c1C#Cc1ccc(c(c1)OCCCCCCCCCCCC)OCCCCCCCCCCCC)non2,COc1c(OC)c(C#Cc2ccc(c(c2)OC)OC)c2c(c1C#Cc1ccc(c(c1)OC)OC)non2,383.7,1.802362209,-0.9528,-7.4787,3.37261,526.0254493233078,0.612451229,-1.9706,-7.4049,65.56011,-1.814,-8.232,4.00787,419.61685791870394,1.2766461469,437,NaN,437,NaN,NaN
CDIVOGUXUXGIDV-UHFFFAOYSA-N,CCOC(=O)C1=C(NC(=O)C1=NNc1ccccc1O)c1ccc2c(c1)cccc2,CCOC(=O)C1=C(NC(=O)C1=NNc1ccccc1O)c1ccc2c(c1)cccc2,364.5,1.175342578,-0.5742,-7.207,9.44937,432.15126666261295,0.599805774,-1.5644,-7.5832,165.62843,-1.308,-8.089,7.71171,412.5243487248027,0.8390285365,466.0,NaN,463.0,NaN,THF
QRCTWICGYKLABR-UHFFFAOYSA-N,CC(=O)CC(=O)c1ccc(o1)c1nc2c(n1C)cccc2,CC(=O)CC(=O)c1ccc(o1)c1nc2c(n1C)cccc2,304.5,1.027983609,-0.4302,-8.0491,1.69817,422.00203677843314,0.674812263,-1.6448,-7.8168,78.78379,-1.214,-8.899,3.74715,326.79879018751006,0.7165785875,382,42620,382,42620,Toluene
XPLMJMOAGYUBCG-UHFFFAOYSA-N,N#CC(=Cc1ccc(s1)c1ccc(s1)c1ccc2c(c1)c1ccccc1n1c2cc2c1cc(cc2)C)C(=O)O,N#CC(=Cc1ccc(s1)c1ccc(s1)c1ccc2c(c1)c1ccccc1n1c2cc2c1cc(cc2)C)C(=O)O,388.1,2.259170722,-1.2501,-7.3165,4.14059,479.8150093092247,1.152823557,-1.7951,-7.1782,663.64913,-2.036,-8.206,4.74934,426.0332382971598,1.8629610773,411,NaN,411,NaN,NaN
IODRPGWCDHWXEG-UHFFFAOYSA-N,N#Cc1c2cc([nH]n2c(=N)c2c1c1CSc3c(c1oc2=O)cccc3)c1ccc(cc1)OC,N#Cc1c2cc([nH]n2c(=N)c2c1c1CSc3c(c1oc2=O)cccc3)c1ccc(cc1)OC,334.7,0.614240631,-0.3729,-7.8286,6.91959,467.1597528466604,0.285637806,-1.54,-7.7774,123.82374,-1.359,-8.442,7.12632,NaN,NaN,444,10591,444,10591,DMF
SIRJFTFGHZXRRZ-UHFFFAOYSA-N,C1=CCN(CC1)Cc1ccccc1,C1=CCN(CC1)Cc1ccccc1,231.2,0.006799023,1.6881,-8.1823,0.54876,269.2966950597386,0.004793428,0.6871,-8.7816,8.07501,0.351,-8.907,1.54917,NaN,NaN,173.1185,NaN,173.1185,NaN,NaN
BTXNYTINYBABQR-UHFFFAOYSA-N,Oc1cc(C)c2c3c1C(=O)c1c(O)cc(c4c1c3c1c3c2c(C)cc(c3C(=O)c2c1c4c(O)cc2O)O)O,Oc1cc(C)c2c3c1C(=O)c1c(O)cc(c4c1c3c1c3c2c(C)cc(c3C(=O)c2c1c4c(O)cc2O)O)O,448.1,0.464812423,-1.6918,-7.6355,2.23608,483.93520064599403,0.406974417,-2.2889,-7.8692,161.53761,-2.444,-8.616,3.61912,NaN,NaN,NaN,NaN,NaN,NaN,NaN
HKNRNTYTYUWGLN-UHFFFAOYSA-N,c1cc2c(s1)c1c(s2)scc1,c1cc2c(s1)c1c(s2)scc1,255.6,0.127717039,1.0415,-8.0567,0.71143,369.3303497334038,0.186609942,-0.3995,-7.5287,40.16286,-1.035,-8.226,0.56067,NaN,NaN,373,NaN,373,NaN,NaN