inchikey,smi_pre,smi_post,lambda_sTDA (nm),f1_sTDA,lumo_dft,homo_dft,dmom_dft (D),lambda_z (nm),f1_z,lumo_z,homo_z,dmom_z (D),lumo_mopac,homo_mopac,dmom_mopac (D),lambda_tddft (nm),f1_tddft,lambda_exp_max (nm),epsilon_exp_max ,lambda_exp_min (nm),epsilon_exp_min ,solvent
IFLREYGFSNHWGE-UHFFFAOYSA-N,c1ccc2c(c1)cc1c(c2)cc2c(c1)cccc2,c1ccc2c(c1)cc1c(c2)cc2c(c1)cccc2,432.6,0.136987889,-0.6174,-6.9935,0.00019,433.2082404105648,0.203699644,-1.0502,-6.9257,0.00389,-1.465,-8.028,0.00089,NaN,NaN,1273.0,8000,765.0,8000,NaN
BPPCOPNHPZEMMR-UHFFFAOYSA-N,CCCCCCCc1ccccc1C#Cc1c(C#Cc2ccccc2CCCCCCC)c(C#Cc2ccccc2CCCCCCC)c(c(c1C#Cc1ccccc1CCCCCCC)F)F,Cc1ccccc1C#Cc1c(C#Cc2ccccc2C)c(C#Cc2ccccc2C)c(c(c1C#Cc1ccccc1C)F)F,322.2,0.616468325,-0.4513,-7.8417,3.96089,400.07808456116055,0.003084378,-0.9236,-7.5263,252.25737,-1.372,-8.703,4.68379,NaN,NaN,420.0,NaN,325.0,NaN,NaN
SZJLYIAMKGQRKL-UHFFFAOYSA-N,N#CC(=Cc1ccc(cc1)N(c1ccc(cc1)C#C)c1ccc(cc1)C#C)C#N,N#CC(=Cc1ccc(cc1)N(c1ccc(cc1)C#C)c1ccc(cc1)C#C)C#N,352.2,1.330283141,-1.1233,-7.8533,8.28448,379.8535490364696,0.587922097,-1.2615,-7.5322,133.05562,-1.63,-8.438,6.40178,NaN,NaN,459.0,NaN,349.0,NaN,NaN
OCUMTSFZHXDWIA-UHFFFAOYSA-N,COCCNc1ncnc2c1nc(n2Cc1ccccc1)C=Cc1ccc(cc1)C(F)(F)F,COCCNc1ncnc2c1nc(n2Cc1ccccc1)C=Cc1ccc(cc1)C(F)(F)F,322.0,1.142351791,-0.4511,-7.8032,1.38165,355.6632197518751,0.580435822,-0.8357,-7.7754,256.02352,-1.165,-8.677,1.25626,340.2420225280995,0.8916577244,354,NaN,354,NaN,NaN
URTWSUNIBSWELO-UHFFFAOYSA-N,COC(=O)c1cc(c2n1nc(cc2)c1ccc(cc1)Br)C(=O)OC,COC(=O)c1cc(c2n1nc(cc2)c1ccc(cc1)Br)C(=O)OC,320.1,0.053650299,-0.2705,-8.4415,4.99911,378.34665366342284,0.261153907,-1.5365,-8.5021,317.96885,-1.45,-9.474,2.46005,NaN,NaN,355.0,NaN,228.0,NaN,acetonitrile
DWEPBIMZTHYTRL-UHFFFAOYSA-N,COc1ccc2c(c1)CCc1c2[nH]cc1C(=O)O,COc1ccc2c(c1)CCc1c2[nH]cc1C(=O)O,273.5,0.359017718,1.3766,-7.3388,3.28982,351.92789782998483,0.296725564,-0.4039,-7.4707,95.03555,-0.224,-8.309,5.24955,NaN,NaN,NaN,NaN,NaN,NaN,NaN
JKCRTTSMRYSWOM-UHFFFAOYSA-N,COC(=O)C(Cc1ccccc1)CNC(=O)OC(C)(C)C,COC(=O)C(Cc1ccccc1)CNC(=O)OC(C)(C)C,235.2,0.002680293,1.3463,-8.9507,2.93629,275.8269152513986,0.00252652,0.2662,-8.8823,107.75819,0.017,-9.589,3.39828,NaN,NaN,NaN,NaN,NaN,NaN,NaN
GHQIBYFHLQADPG-UHFFFAOYSA-N,CCCCCCCCCCCCCCCCN(c1ccc(cc1)C(=c1c(F)c(F)c(=C(C#N)C#N)c(c1F)F)C(=C(C#N)C#N)c1ccc(s1)C=O)CCCCCCCCCCCCCCCC,CN(c1ccc(cc1)C(=c1c(F)c(F)c(=C(C#N)C#N)c(c1F)F)C(=C(C#N)C#N)c1ccc(s1)C=O)C,517.3,1.365103317,-2.962,-7.8896,14.09365,443.11722089172144,0.632924328,-2.8879,-8.5574,318.18530,-3.009,-8.843,9.71073,599.9138385311824,0.9152829124,848.0,NaN,342.0,NaN,CH 2 Cl
FWZBVDAMNNIMRN-UHFFFAOYSA-N,Fc1c(c2nnc(o2)c2ccc(cc2)C2=Cc3c(C2)cccc3)c(F)c(c(c1F)F)F,Fc1c(c2nnc(o2)c2ccc(cc2)C2=Cc3c(C2)cccc3)c(F)c(c(c1F)F)F,328.7,1.575171939,-0.507,-7.8961,3.64193,403.0695656875932,1.018104099,-1.8259,-7.744,671.03248,-2.065,-8.937,4.45203,337.84079405226146,1.4607060997,349,NaN,349,NaN,NaN
YXIWHUQXZSMYRE-UHFFFAOYSA-N,S=c1sc2c([nH]1)cccc2,S=c1sc2c([nH]1)cccc2,304.5,0.00020903,0.5024,-8.0548,5.07175,434.2703972171757,6.056e-05,-0.6649,-8.6732,138.50570,-1.24,-8.454,5.08337,NaN,NaN,328.0,6200,328.0,6200,NaN
BNNAQDVOKXHDDA-UHFFFAOYSA-N,O=c1cc(C)c2c(o1)cc(cc2)C=Cc1ccc(cc1)[N+](=O)[O-],O=c1cc(C)c2c(o1)cc(cc2)C=Cc1ccc(cc1)[N+](=O)[O-],330.4,1.487929191,-1.1736,-8.4612,6.57237,422.00203677843314,0.002283116,-2.5241,-8.6549,156.58486,-1.735,-9.546,7.14376,341.33797596354776,1.3427761841,352,NaN,352,NaN,NaN
RXWHMOSAJRERQB-UHFFFAOYSA-N,Clc1ccc2c(c1)nccc2n1nnc(c1C)C(=O)C=Cc1ccc(cc1)OCCCN1CCOCC1,Clc1ccc2c(c1)nccc2n1nnc(c1C)C(=O)C=Cc1ccc(cc1)OCCCN1CCOCC1,317.0,0.00623404,-0.4993,-8.0455,3.34038,374.3484251373903,0.004912433,-1.1596,-8.3191,474.39647,-1.623,-8.83,4.9858,NaN,NaN,237,NaN,237,NaN,methanol
SSPYSWLZOPCOLO-UHFFFAOYSA-N,O=c1cn[nH]c(=O)[nH]1,O=c1cn[nH]c(=O)[nH]1,268.1,0.000573297,-0.0552,-10.1345,1.73457,338.93985348688807,7.804e-06,-1.7389,-10.5572,12.16914,-1.107,-10.618,1.60954,NaN,NaN,320,NaN,320,NaN,NaN
VPMOKAWVEVNXHC-UHFFFAOYSA-N,COc1ccc(cc1)N1c2ccc(cc2Sc2c1cccc2)C=C(C(=O)O)C#N,COc1ccc(cc1)N1c2ccc(cc2Sc2c1cccc2)C=C(C(=O)O)C#N,365.1,0.408973628,-0.7019,-7.5525,6.69795,381.3724958643607,0.567330395,-1.4203,-7.8169,207.20387,-1.437,-7.877,6.55227,NaN,NaN,450.0,18500,313.0,18500,NaN
APIRVWKQVMPIQC-UHFFFAOYSA-N,O=Nc1ccccc1c1c(C(=O)OC(C(=O)C)C)c(C)nc(c1C(=O)O)C,O=Nc1ccccc1c1c(C(=O)OC(C(=O)C)C)c(C)nc(c1C(=O)O)C,843.4,0.001046511,-0.9946,-8.8729,7.03448,890.0516755599689,0.000379441,-2.0535,-9.2527,71.72558,-1.252,-9.585,5.20881,NaN,NaN,1960.7843137254902,NaN,437.0,NaN,NaN
HLWFMQDDSMWSOR-UHFFFAOYSA-N,CCn1c2ccc(cc2c2c1ccc(c2)C=Cc1ccc2c(c1)c1cc(ccc1n2CC)c1nc2c(s1)cccc2)c1nc2c(s1)cccc2,CCn1c2ccc(cc2c2c1ccc(c2)C=Cc1ccc2c(c1)c1cc(ccc1n2CC)c1nc2c(s1)cccc2)c1nc2c(s1)cccc2,332.3,1.253092247,0.2027,-7.0801,4.95886,344.68779095219253,0.683077895,-0.4999,-7.484,180.39789,-0.974,-8.162,3.65576,339.85963380729544,1.2000504541,362.0,NaN,360.0,NaN,Ethyl acetate
HKOOXMFOFWEVGF-UHFFFAOYSA-N,NNc1ccccc1,NNc1ccccc1,257.8,0.050753418,1.7938,-7.8391,0.60668,279.8108743071624,0.022874668,0.6833,-8.3208,27.35070,0.068,-8.719,1.49394,NaN,NaN,213,46080.0,213,46080.0,THF
LKHLFUVHHXCNJH-UHFFFAOYSA-N,Clc1cc(Cl)c(cc1c1c(Cl)ccc(c1Cl)Cl)Cl,Clc1cc(Cl)c(cc1c1c(Cl)ccc(c1Cl)Cl)Cl,248.3,0.017540358,0.5448,-9.1835,2.10600,277.80461215662933,0.007155588,-0.9295,-9.9746,86.29363,-1.141,-9.93,2.54114,NaN,NaN,NaN,NaN,NaN,NaN,NaN
IXIJUTBWENIBJG-UHFFFAOYSA-N,CCCCCCCCN1c2ccccc2Sc2c1ccc(c2)C=C(C(=O)O)C#N,CN1c2ccccc2Sc2c1ccc(c2)C=C(C(=O)O)C#N,348.5,0.399643425,-0.7832,-7.7673,6.53392,361.7863974482161,0.545541791,-1.42,-8.0621,164.01841,-1.494,-8.047,5.09957,NaN,NaN,439.0,20700.0,315.0,13700.000000000002,NaN
DLDREKZYSJKHBD-UHFFFAOYSA-N,C(=Cc1ccc(cc1)c1ccc(cc1)C=CSC=C(c1ccccc1)c1ccccc1)SC=C(c1ccccc1)c1ccccc1,C(=Cc1ccc(cc1)c1ccc(cc1)C=CSC=C(c1ccccc1)c1ccccc1)SC=C(c1ccccc1)c1ccccc1,326.5,1.668182295,0.0633,-7.4464,0.73726,303.88283922917566,0.694800674,0.0287,-7.628,37.48539,-0.441,-8.124,0.8507,341.1689084209005,1.8857487364,365,NaN,365,NaN,CH 2 Cl 2
HKEVONKOYSRQKW-UHFFFAOYSA-N,CCCCCCn1c2cc(ccc2c2c1cc(cc2)N(c1ccccc1)c1ccccc1)N(c1ccccc1)c1ccccc1,Cn1c2cc(ccc2c2c1cc(cc2)N(c1ccccc1)c1ccccc1)N(c1ccccc1)c1ccccc1,326.9,0.884899183,0.6929,-6.798,1.56831,361.575381759999,0.679432888,0.0084,-6.8842,9.30180,-0.427,-7.631,1.96835,330.8450780766897,0.9509542452,376,NaN,376,NaN,NaN
MYUNWHTZYXUCIK-UHFFFAOYSA-N,NN=Cc1ccccc1O,NN=Cc1ccccc1O,275.7,0.246002343,0.7903,-7.9713,3.18778,304.9291647946475,0.187278984,-0.4129,-8.3879,46.96990,-0.467,-8.759,3.22435,NaN,NaN,290,158489.3192461114,290,158489.3192461114,EtOH
VWPOSFSPZNDTMJ-UCWKZMIHSA-N,OC(COc1cccc2c1C[C@H](O)[C@@H](C2)O)CNC(C)(C)C,OC(COc1cccc2c1C[C@H](O)[C@@H](C2)O)CNC(C)(C)C,245.9,0.02679308,1.6773,-8.4049,1.86158,283.00433326980976,0.002010389,0.5549,-8.663,87.28116,0.044,-9.071,3.80535,NaN,NaN,NaN,NaN,NaN,NaN,NaN
MTLDNGPBUAWQRY-UHFFFAOYSA-N,CCCC1CC(C)c2c(N1)cccc2,C1CC(C)c2c(N1)cccc2,266.8,0.056297922,1.9581,-7.4537,1.78915,290.56526460160217,0.029217825,0.8283,-7.945,23.96234,0.478,-8.142,2.16679,NaN,NaN,NaN,NaN,NaN,NaN,NaN
FRQVDMWDJXQBPZ-UHFFFAOYSA-N,CCn1cnc2c1cc([N+](=O)[O-])c1c2c(on1)c1ccc(cc1)[N+](=O)[O-],CCn1cnc2c1cc([N+](=O)[O-])c1c2c(on1)c1ccc(cc1)[N+](=O)[O-],352.5,0.704561089,-1.3601,-8.5212,9.26636,511.90833363131156,0.496266746,-2.9421,-8.4547,138.66126,-2.249,-9.425,8.97058,NaN,NaN,425,NaN,425,NaN,NaN
URYAFVKLYSEINW-UHFFFAOYSA-N,CC(c1ccc(cc1)Cl)(c1ccc(cc1)Cl)O,CC(c1ccc(cc1)Cl)(c1ccc(cc1)Cl)O,237.7,0.005351182,1.1204,-8.8426,2.73026,275.6429488783985,0.0187544,-0.0866,-8.8653,117.73429,-0.482,-9.636,3.33717,NaN,NaN,NaN,NaN,NaN,NaN,NaN
DADNIAUWWKRDAS-UHFFFAOYSA-N,COc1ccc(cc1)C=C1N=C(N(C1=O)Cc1ccccc1)c1ccccc1,COc1ccc(cc1)C=C1N=C(N(C1=O)Cc1ccccc1)c1ccccc1,334.0,1.123135258,-0.3377,-7.5894,4.52209,360.2097571339444,0.816633704,-0.9746,-7.8306,87.19057,-1.081,-8.499,3.92973,361.30141336181214,0.8654806487,391.0,NaN,391.0,NaN,NaN
RTIXKCRFFJGDFG-UHFFFAOYSA-N,Oc1cc(O)c2c(c1)oc(cc2=O)c1ccccc1,Oc1cc(O)c2c(c1)oc(cc2=O)c1ccccc1,283.1,0.270872039,-0.1478,-8.4643,6.23448,360.10513623439925,0.001159769,-1.1106,-8.8117,122.39225,-1.048,-9.463,3.60823,NaN,NaN,NaN,NaN,NaN,NaN,NaN
PSNXLEOAYYAODE-UHFFFAOYSA-N,O=C(c1cc(C(=O)CC(=O)c2ccccc2)c(nc1C)C)CC(=O)c1ccccc1,O=C(c1cc(C(=O)CC(=O)c2ccccc2)c(nc1C)C)CC(=O)c1ccccc1,306.0,0.00861477,-0.3812,-9.5012,1.89913,363.2704318942387,0.000140457,-1.1456,-9.2628,41.37683,-0.918,-10.061,3.1848,NaN,NaN,340,67608.29753919819,340,67608.29753919819,NaN
UDGGZVIHEPGRBI-UHFFFAOYSA-N,c1csc(c1)c1c(sc2c1scc2)c1cccs1,c1csc(c1)c1c(sc2c1scc2)c1cccs1,301.9,0.455106003,0.2968,-7.6763,0.89963,364.874038862577,0.356337773,-0.4396,-7.5688,89.95476,-1.044,-8.29,0.59152,NaN,NaN,700.0,NaN,420.0,NaN,NaN
GFZHUFGKDVINJH-UHFFFAOYSA-N,CN(c1ccc2c(c1)Oc1c(C32OC(=O)c2c3cccc2)ccc2c1ccc(c2)OCc1ccc(cc1)[N+](=O)[O-])C,CN(c1ccc2c(c1)Oc1c(C32OC(=O)c2c3cccc2)ccc2c1ccc(c2)OCc1ccc(cc1)[N+](=O)[O-])C,315.2,1.9034e-05,-0.4862,-7.7859,9.15562,420.71326231932017,9.36e-07,-2.3877,-8.0032,289.23575,-1.362,-8.549,9.92258,NaN,NaN,545.0,2070.0,520.0,1820.0,NaN
BWGYFSZZIBJJIU-UHFFFAOYSA-N,CCCCCCc1ccsc1c1sc(c2c1cccc2)c1ccc(cc1)N,Cc1ccsc1c1sc(c2c1cccc2)c1ccc(cc1)N,367.6,0.57576032,0.1374,-6.9577,2.43252,454.82097727624233,0.314843445,-0.6448,-6.8225,131.86790,-1.015,-8.112,2.84612,NaN,NaN,445,NaN,445,NaN,CH 2 Cl
OVHPCAWSUQWPTM-UHFFFAOYSA-N,OCc1ccc(cc1)N(c1ccccc1)c1ccc(cc1)C=Cc1ccc(cc1)[N+](=O)[O-],OCc1ccc(cc1)N(c1ccccc1)c1ccc(cc1)C=Cc1ccc(cc1)[N+](=O)[O-],351.2,1.614123552,-0.7594,-7.321,7.08291,422.28950410593893,0.039610121,-2.3965,-7.4581,277.17976,-1.42,-8.205,7.6374,371.88935783688606,1.438654183,434.0,NaN,427.0,NaN,NaN
WCJLCOAEJIHPCW-UHFFFAOYSA-N,CCCCCCCCOC(=O)c1ccccc1O,COC(=O)c1ccccc1O,264.7,0.103144141,0.5697,-8.6637,1.36159,296.68389185332296,0.089469213,-0.7812,-9.0883,39.21949,-0.736,-9.46,2.42779,NaN,NaN,290,NaN,290,NaN,NaN
HPOARFAQUHSJDG-UHFFFAOYSA-N,CCCCCCOc1ccc(cc1)n1c(=O)c(c2c1c(c1cccs1)c(=O)n2c1ccc(cc1)OCCCCCC)c1cccs1,COc1ccc(cc1)n1c(=O)c(c2c1c(c1cccs1)c(=O)n2c1ccc(cc1)OC)c1cccs1,424.8,0.005868435,-0.8306,-7.7703,1.35590,459.3708721952711,0.00583959,-1.8246,-7.8789,61.27372,-1.799,-8.443,0.8693,NaN,NaN,412,NaN,412,NaN,NaN
XQPKXXGDGHOCPI-UHFFFAOYSA-N,Cc1cccc(c1)N=Nc1c(=O)[nH]c2n(c1N)c1ccccc1n2,Cc1cccc(c1)N=Nc1c(=O)[nH]c2n(c1N)c1ccccc1n2,403.7,0.000550337,-0.4062,-8.0361,5.03832,526.2487198875368,0.002216846,-1.4039,-8.0435,93.70051,-1.319,-8.855,5.81368,NaN,NaN,418.0,NaN,365.0,NaN,Chloroform
GKUXLUBYKWAWFZ-UHFFFAOYSA-N,CSc1ccc(cc1)c1ccc(cc1)c1[nH]c(=O)c2c1c(=O)[nH]c2c1ccc(cc1)c1ccc(cc1)SC,CSc1ccc(cc1)c1ccc(cc1)c1[nH]c(=O)c2c1c(=O)[nH]c2c1ccc(cc1)c1ccc(cc1)SC,426.1,1.57414017,-1.1106,-7.2483,0.00405,438.88211824957045,0.857819877,-1.565,-7.678,0.51272,-1.586,-8.406,1.00065,461.2850398438851,1.1207329318,544,NaN,544,NaN,dichloromethane
XGNITPGMVMYTGC-INIZCTEOSA-N,CCCCCCCC(=O)N[C@H](c1cccc(c1)OC)CO,C(=O)N[C@H](c1cccc(c1)OC)CO,245.9,0.055252973,1.3883,-8.549,2.94117,289.3446870606853,0.000818364,0.1671,-8.7373,49.36865,-0.323,-9.328,5.00213,NaN,NaN,NaN,NaN,NaN,NaN,NaN
YGWJTOJFBDCIHG-IBGZPJMESA-N,COC(=O)[C@H](Cc1c([nH]c2c1cccc2)c1ccc(cc1)C)NC(=O)C,COC(=O)[C@H](Cc1c([nH]c2c1cccc2)c1ccc(cc1)C)NC(=O)C,281.5,0.466245646,0.6741,-7.6659,6.13435,326.70408011990423,0.499765511,-0.1285,-7.536,107.60558,-0.365,-8.506,5.02518,NaN,NaN,310,NaN,310,NaN,NaN
AWFPGFDXVOUWPW-UHFFFAOYSA-N,O=C(C(F)(F)F)C(=CC=C(c1ccc(cc1)C)c1ccc(cc1)C)C(=O)C(F)(F)F,O=C(C(F)(F)F)C(=CC=C(c1ccc(cc1)C)c1ccc(cc1)C)C(=O)C(F)(F)F,348.7,0.359360175,-1.0295,-8.4122,5.41916,454.15457291393284,0.131786662,-1.9228,-8.2452,446.89177,-1.718,-9.368,5.76894,NaN,NaN,405,NaN,405,NaN,NaN
KMOUJOKENFFTPU-QNDFHXLGSA-N,OC[C@H]1O[C@@H](Oc2cc(O)c3c(c2)oc(cc3=O)c2ccc(cc2)O)[C@@H]([C@H]([C@@H]1O)O)O,OC[C@H]1O[C@@H](Oc2cc(O)c3c(c2)oc(cc3=O)c2ccc(cc2)O)[C@@H]([C@H]([C@@H]1O)O)O,284.0,0.452262764,-0.0509,-8.4032,2.90388,360.3144388419171,0.00259794,-1.1621,-8.5607,102.01635,-1.082,-9.415,6.84789,NaN,NaN,325.0,NaN,255.0,NaN,NaN
GOSWLUPUSVWMFN-UHFFFAOYSA-N,COc1ccc(cc1)c1ccc(cc1)c1[nH]c(=O)c2c1c(=O)[nH]c2c1ccc(cc1)c1ccc(cc1)OC,COc1ccc(cc1)c1ccc(cc1)c1[nH]c(=O)c2c1c(=O)[nH]c2c1ccc(cc1)c1ccc(cc1)OC,421.7,1.459605313,-0.9872,-7.1974,2.12177,435.1849715882894,0.865160869,-1.5091,-7.6325,19.36007,-1.494,-8.455,0.03512,460.2234335903469,1.0672030546,541,NaN,541,NaN,dichloromethane
FRVZOHONQLMDNU-UHFFFAOYSA-N,Cc1ccc(cc1)c1nc2c(o1)cc(cc2)c1ccc2c(c1)oc(n2)c1ccc(cc1)C,Cc1ccc(cc1)c1nc2c(o1)cc(cc2)c1ccc2c(c1)oc(n2)c1ccc(cc1)C,303.0,1.815246166,0.0502,-7.7292,2.98248,366.3835650280841,1.332058485,-0.6597,-7.3916,46.25192,-1.076,-8.785,2.1805,307.775278048951,1.8707600423,331,58300,331,58300,heptane
VQUGHCQGMVVTRV-UHFFFAOYSA-N,O=Cc1ccc(s1)c1ccc(s1)C1=CCC(CC1)C,O=Cc1ccc(s1)c1ccc(s1)C1=CCC(CC1)C,326.4,1.108718202,-0.4104,-7.7684,5.38557,435.33777530022354,0.826155361,-1.4194,-7.6063,284.25859,-1.286,-9.164,4.69975,366.54602515665766,0.8688926536,395.0,NaN,382.0,NaN,Hexane
PLFZQQMKTBSOOK-UHFFFAOYSA-N,Cc1ccc2c(c1)cc1c(n2C)nc(nc1=O)c1ccccc1,Cc1ccc2c(c1)cc1c(n2C)nc(nc1=O)c1ccccc1,367.7,0.000670857,-1.0116,-8.3241,9.03520,397.25792504166503,0.000488639,-1.5152,-8.3954,80.99813,-1.647,-8.903,9.13747,NaN,NaN,456.0,44668.359215096345,288.0,1905.4607179632462,NaN
XMTQQYYKAHVGBJ-UHFFFAOYSA-N,O=C(N(C)C)Nc1ccc(c(c1)Cl)Cl,O=C(N(C)C)Nc1ccc(c(c1)Cl)Cl,256.6,0.024638987,1.27,-8.305,6.97262,285.15225024264873,0.007720035,-0.302,-9.0548,232.41689,-0.553,-9.081,5.62728,NaN,NaN,450.0,2050,371.0,1935,NaN
ZGMLBZYISUQBET-UHFFFAOYSA-N,[O-][N+](=O)c1ccc(cc1)C=NN=Cc1ccco1,[O-][N+](=O)c1ccc(cc1)C=NN=Cc1ccco1,345.6,0.00357562,-1.0765,-8.4401,6.20867,423.4433005652448,0.000200226,-2.5555,-8.2311,110.93868,-1.846,-9.455,5.89598,NaN,NaN,341,NaN,341,NaN,dioxane
HAHOGYAHXYEYLW-UHFFFAOYSA-N,COC(=O)c1n2nc(C=Cc3ccc(cc3)c3ccccc3)ccc2c(c1C(=O)OC)C(=O)OC,COC(=O)c1n2nc(C=Cc3ccc(cc3)c3ccccc3)ccc2c(c1C(=O)OC)C(=O)OC,321.4,0.813571116,-0.5433,-8.0893,4.41408,377.5401900289393,0.308548686,-1.3513,-8.2512,396.23597,-1.482,-9.265,5.80529,330.18426899930614,1.2385398705,455.0,NaN,332.0,NaN,MeOH
KEJSBSWTDDGGGM-UHFFFAOYSA-N,c1ccc2c(c1)c1ccccc1n2c1cc(cc(c1)c1ccc2c(c1)c1ccccc1c1c2cccc1)c1ccc2c(c1)c1ccccc1c1c2cccc1,c1ccc2c(c1)c1ccccc1n2c1cc(cc(c1)c1ccc2c(c1)c1ccccc1c1c2cccc1)c1ccc2c(c1)c1ccccc1c1c2cccc1,299.2,0.056415319,0.1695,-7.6748,2.03920,337.1884645240785,0.002520762,-0.3049,-7.6824,25.89255,-0.885,-8.22,1.43528,NaN,NaN,273,NaN,273,NaN,NaN
YJTNLCLLELHSDS-UHFFFAOYSA-N,Cc1csc2c1c1c(C)csc1S2(=O)=O,Cc1csc2c1c1c(C)csc1S2(=O)=O,313.3,0.019027144,-0.1943,-8.6212,6.84731,402.284874774509,7.33e-07,-1.363,-8.7208,189.27226,-1.326,-8.487,6.57156,NaN,NaN,349.0,NaN,310.0,NaN,NaN
PAYFCONEYHIKPL-UHFFFAOYSA-N,CCCN1c2ccc(cc2Sc2c1cccc2)C=Cc1cc(=O)oc2c1ccc(c2)O,CCCN1c2ccc(cc2Sc2c1cccc2)C=Cc1cc(=O)oc2c1ccc(c2)O,345.1,0.501668162,-0.3443,-7.3009,5.33926,339.3108878092602,0.535841276,-1.113,-7.6874,246.89378,-1.151,-7.796,6.56961,NaN,NaN,422,NaN,422,NaN,chloroform
GVUQKWBEFVBSME-UHFFFAOYSA-N,OC(=C1C(=O)CC(CC1=O)(C)C)C=Cc1ccc(cc1)N(c1ccccc1)c1ccccc1,OC(=C1C(=O)CC(CC1=O)(C)C)C=Cc1ccc(cc1)N(c1ccccc1)c1ccccc1,359.3,1.475084477,-0.6296,-7.3262,2.10510,394.1010756691153,0.804632522,-1.2557,-7.3361,114.54138,-1.138,-8.098,1.37397,389.0310417610275,1.3711943834,466.0,NaN,449.0,NaN,MeOH
DYLQCPAXSQEDPH-UHFFFAOYSA-N,N#Cc1cc(NCc2ccccc2)c2c(c1N)C(=O)c1c(C2=O)cccc1,N#Cc1cc(NCc2ccccc2)c2c(c1N)C(=O)c1c(C2=O)cccc1,434.3,0.237586579,-1.3621,-8.0129,4.73672,432.0006913083751,0.249080508,-2.0082,-8.3569,109.13930,-1.914,-8.404,3.54823,NaN,NaN,642.0,NaN,610.0,NaN,NaN
SFRQQWWXGZPJNE-UHFFFAOYSA-N,c1ccc(cc1)n1c2ccccc2c2c1c1c(c3c2n(c2ccccc2)c2c3cccc2)n(c2c1cccc2)c1ccccc1,c1ccc(cc1)n1c2ccccc2c2c1c1c(c3c2n(c2ccccc2)c2c3cccc2)n(c2c1cccc2)c1ccccc1,306.0,0.005123587,1.012,-7.0014,1.62361,378.577705054973,0.000575941,-0.0521,-7.128,19.46514,-0.519,-7.839,2.91514,NaN,NaN,314,NaN,314,NaN,NaN
DPPJSASYDJIYOZ-UHFFFAOYSA-N,CCCCCCCOc1ccc(cc1)c1ccc2c(c1)sc(c2C1=C(c2c(C)sc3c2ccc(c3)c2ccc(cc2)OCCCCCCC)C(C(C1(F)F)(F)F)(F)F)C,COc1ccc(cc1)c1ccc2c(c1)sc(c2C1=C(c2c(C)sc3c2ccc(c3)c2ccc(cc2)OC)C(C(C1(F)F)(F)F)(F)F)C,274.2,0.246738517,0.3782,-7.7708,5.72422,315.7224303679747,0.016425839,-0.3888,-7.857,356.07145,-0.904,-8.672,1.46363,NaN,NaN,292,NaN,292,NaN,NaN
DNQZTCGKYAOHGB-UHFFFAOYSA-N,CCCCCCCCc1ccc(s1)c1sc(c(c1C#N)C#N)c1ccc(s1)CCCCCCCC,Cc1ccc(s1)c1sc(c(c1C#N)C#N)c1ccc(s1)C,341.7,0.899144691,-0.7331,-7.9796,8.01914,408.6493025890035,0.462296335,-1.2289,-7.8088,60.12112,-1.645,-9.265,7.49266,374.61987252006116,0.707110932,394,NaN,394,NaN,NaN
LZNJMAZHVAHOHR-UHFFFAOYSA-N,OCCN(c1ccc(c(c1)Cl)N=Nc1scc(n1)c1ccc(cc1Cl)Cl)CCO,OCCN(c1ccc(c(c1)Cl)N=Nc1scc(n1)c1ccc(cc1Cl)Cl)CCO,469.7,0.005635396,-0.8447,-7.8291,3.23917,550.5515026887374,0.024940979,-1.7848,-8.1628,402.89509,-1.508,-8.633,4.67544,NaN,NaN,600,NaN,600,NaN,DMF
NTDPZQXVEPIWSZ-UHFFFAOYSA-N,CCN1C(=O)C(=CC=c2n(c3ccccc3)c3c(n2c2ccccc2)cccc3)C(=O)N(C1=S)CC,CCN1C(=O)C(=CC=c2n(c3ccccc3)c3c(n2c2ccccc2)cccc3)C(=O)N(C1=S)CC,377.6,0.564044875,-0.1728,-7.2695,9.42966,497.32931570599146,0.094725956,-1.0719,-7.6706,145.21886,-1.093,-7.956,10.12913,NaN,NaN,481.0,NaN,463.0,NaN,EtOH
IPBPOBHSNJFRFT-UHFFFAOYSA-N,OCCC1CCN(CC1)C1(C(=O)NC(=O)NC1=O)c1ccccc1,OCCC1CCN(CC1)C1(C(=O)NC(=O)NC1=O)c1ccccc1,282.4,0.006068622,0.4329,-8.5534,2.96681,310.1931408694112,0.001643729,-0.9335,-9.1222,139.95081,-0.575,-9.428,1.73846,NaN,NaN,1320.0,NaN,850.0,NaN,NaN
FNQSRWUENKMVDX-UHFFFAOYSA-N,NCCC(=O)N1Cc2ccccc2c2c(c3c1cccc3)n(nn2)c1cc2ccccc2oc1=O,NCCC(=O)N1Cc2ccccc2c2c(c3c1cccc3)n(nn2)c1cc2ccccc2oc1=O,285.1,0.6333865,-0.5377,-8.4889,4.26636,337.0967873994118,0.38099268,-1.3311,-8.0815,75.64920,-1.721,-8.899,7.19822,NaN,NaN,384.0,NaN,325.0,NaN,NaN
UIQWCPKGWUKTFR-UHFFFAOYSA-N,N#CC(=CNc1cccc(c1)F)C#N,N#CC(=CNc1cccc(c1)F)C#N,268.3,0.900821488,-0.4056,-8.8999,6.97431,314.4412843152515,0.633548388,-1.1133,-8.8153,46.39430,-1.626,-9.57,7.04859,286.0667566720644,0.7681376693,319.0,NaN,309.0,NaN,DMSO
WTWLSXNDPSJKCT-UHFFFAOYSA-N,Clc1ccc2c(c1)nc([nH]2)C1CCCN1,Clc1ccc2c(c1)nc([nH]2)C1CCCN1,255.5,0.071619047,1.2277,-8.2939,5.81873,304.18105595069596,0.118631224,0.0041,-8.2245,184.23181,-0.466,-9.081,6.25695,NaN,NaN,282,NaN,282,NaN,NaN
WEYAWVOPWUZLGK-UHFFFAOYSA-N,CC(=C1C(=O)N(C(=O)C1=C(c1c(C)c2c(n1C)cccc2)C)Cc1ccccc1)C,CC(=C1C(=O)N(C(=O)C1=C(c1c(C)c2c(n1C)cccc2)C)Cc1ccccc1)C,323.5,0.326540552,0.0355,-7.6738,3.00537,372.7726951458318,0.276619584,-0.73,-7.7096,87.00830,-0.624,-8.328,3.88049,NaN,NaN,160,NaN,160,NaN,NaN
VBKVCJUHCPUMME-ZEQRLZLVSA-N,c1ccc(cc1)[C@@H]1N=C(c2ccccn2)C(=N[C@H]1c1ccccc1)c1ccccn1,c1ccc(cc1)[C@@H]1N=C(c2ccccn2)C(=N[C@H]1c1ccccc1)c1ccccn1,341.6,0.01850756,-0.0603,-8.6498,2.22101,382.431210380949,0.00225616,-0.4916,-8.4237,60.86973,-0.556,-9.169,2.77693,NaN,NaN,443.0,NaN,266.0,NaN,NaN
VMHWSWWYZLSISW-UHFFFAOYSA-N,C=C(c1[nH]c2c(c1CCNS(=O)(=O)c1ccccc1[N+](=O)[O-])cccc2)c1ccc(cc1)N(C)C,C=C(c1[nH]c2c(c1CCNS(=O)(=O)c1ccccc1[N+](=O)[O-])cccc2)c1ccc(cc1)N(C)C,318.4,0.013855573,-0.5202,-7.388,4.99300,649.4719665034241,0.002016943,-2.8119,-7.5694,219.15629,-1.198,-8.193,6.74553,NaN,NaN,300.0,NaN,243.0,NaN,NaN
MVPOBOFPUFXLCW-UHFFFAOYSA-N,N=c1[nH]c(=O)c2c1c1CCCCCc1[nH]c2=O,N=c1[nH]c(=O)c2c1c1Cc1[nH]c2=O,345.1,0.144502665,-0.8893,-8.7473,7.10324,450.196798858038,0.20474847,-1.8783,-8.4946,58.29519,-1.72,-9.419,5.4482,NaN,NaN,410.0,6638,230.0,2458,HCl
SMUCBMFMKUBXGN-UHFFFAOYSA-N,CCOC(=O)c1[nH]c(c(c1C)C(=NN)c1ccc(cc1[N+](=O)[O-])[N+](=O)[O-])C,CCOC(=O)c1[nH]c(c(c1C)C(=NN)c1ccc(cc1[N+](=O)[O-])[N+](=O)[O-])C,316.6,0.015752218,-0.9183,-8.3973,6.66644,483.7463847268968,0.023562513,-3.0681,-8.594,198.52155,-1.855,-9.286,6.39686,NaN,NaN,251,NaN,251,NaN,NaN
CSPIFKKOBWYOEX-UHFFFAOYSA-N,CC(=O)c1cc2ccccc2oc1=O,CC(=O)c1cc2ccccc2oc1=O,318.2,0.000588979,-0.7862,-9.1191,4.20989,355.1538195517149,0.001946334,-1.6793,-9.1769,54.04524,-1.601,-9.793,3.81345,NaN,NaN,300,NaN,300,NaN,NaN
FTVWIRXFELQLPI-UHFFFAOYSA-N,Oc1ccc(cc1)C1CC(=O)c2c(O1)cc(cc2O)O,Oc1ccc(cc1)C1CC(=O)c2c(O1)cc(cc2O)O,278.4,0.090089083,0.4494,-8.4676,3.27976,349.9412881893978,2.8058e-05,-0.8842,-8.7133,61.65524,-0.619,-9.44,2.30643,NaN,NaN,NaN,NaN,NaN,NaN,NaN