inchikey,smi_pre,smi_post,lambda_sTDA (nm),f1_sTDA,lumo_dft,homo_dft,dmom_dft (D),lambda_z (nm),f1_z,lumo_z,homo_z,dmom_z (D),lumo_mopac,homo_mopac,dmom_mopac (D),lambda_tddft (nm),f1_tddft,lambda_exp_max (nm),epsilon_exp_max ,lambda_exp_min (nm),epsilon_exp_min ,solvent
KCQVFCNTVGOEFD-UHFFFAOYSA-N,Brc1cc(Nc2ccc(c(c2)S(=O)(=O)O)Nc2ccccc2)c2c(c1N)C(=O)c1c(C2=O)cccc1,Brc1cc(Nc2ccc(c(c2)S(=O)(=O)O)Nc2ccccc2)c2c(c1N)C(=O)c1c(C2=O)cccc1,446.7,0.520486263,-1.2183,-7.4154,5.03832,467.6884134496555,0.34657948,-1.9944,-7.8047,384.69289,-1.724,-8.005,1.80033,NaN,NaN,618,NaN,618,NaN,NaN
MBPJXKPQBWNPMY-UHFFFAOYSA-N,CC(=O)C(=NNc1ccccc1C(=O)O)C(=O)c1ccccc1,CC(=O)C(=NNc1ccccc1C(=O)O)C(=O)c1ccccc1,324.3,0.021826446,-0.2189,-8.2851,4.80140,367.46946771044355,0.003916663,-0.9814,-8.4347,38.71512,-1.254,-9.0,3.80301,NaN,NaN,423.0,2930,236.0,10300,NaN
YDOWMMONBFFJTG-UHFFFAOYSA-N,Oc1c(ccc2c1cccc2)N=Nc1ccc2c(c1S(=O)(=O)O)cccc2,Oc1c(ccc2c1cccc2)N=Nc1ccc2c(c1S(=O)(=O)O)cccc2,434.0,0.040953748,-1.0412,-7.8155,3.38613,536.9605820939959,0.000434912,-1.5222,-7.6603,126.72159,-1.76,-8.733,4.28851,NaN,NaN,504,NaN,504,NaN,NaN
MJUOVLNULFLEAG-UHFFFAOYSA-N,O=C1c2cc3ccc(cc3cc2C(=O)N1c1ccccc1)[N+](=O)[O-],O=C1c2cc3ccc(cc3cc2C(=O)N1c1ccccc1)[N+](=O)[O-],317.8,0.000107924,-1.2665,-9.282,2.76380,425.62375010471567,0.000242959,-2.9196,-8.7814,157.66339,-2.209,-9.375,2.43463,NaN,NaN,375.0,NaN,364.0,NaN,NaN
XUBOMFCQGDBHNK-UHFFFAOYSA-N,COc1c(N2CCNC(C2)C)c(F)cc2c1n(cc(c2=O)C(=O)O)C1CC1,COc1c(N2CCNC(C2)C)c(F)cc2c1n(cc(c2=O)C(=O)O)C1CC1,288.9,0.064862187,-0.044,-8.3559,9.53355,345.35988413789323,6.3228e-05,-1.266,-8.9281,227.48632,-1.098,-9.011,9.95634,NaN,NaN,NaN,NaN,NaN,NaN,NaN
MFQAUAKRZPDUCL-UHFFFAOYSA-N,CCCCOc1ccc(cc1)N(c1ccc2c(c1)cnc(n2)C=C(C(=O)O)C#N)c1ccc(cc1)OCCCC,COc1ccc(cc1)N(c1ccc2c(c1)cnc(n2)C=C(C(=O)O)C#N)c1ccc(cc1)OC,370.6,0.653656227,-0.9665,-7.3305,9.36359,404.1205945420589,0.571373707,-1.7483,-7.5311,281.62312,-1.738,-8.165,8.64231,NaN,NaN,438,NaN,438,NaN,NaN
BRBZWCRWOQUXEZ-UHFFFAOYSA-N,CCOC(=O)c1cc2cc3cc(OC)ccc3nc2nc1C,CCOC(=O)c1cc2cc3cc(OC)ccc3nc2nc1C,366.7,0.102473194,-0.7892,-7.9294,5.01310,385.52300499223776,0.226929165,-1.4783,-8.056,27.24165,-1.701,-8.852,6.98184,NaN,NaN,370,NaN,370,NaN,acetone
SNOCHAPHQPHBNC-UHFFFAOYSA-N,O=C(c1ccc(cc1)c1ccccc1)NCCC[Si]12OCCN(CCO1)CCO2,O=C(c1ccc(cc1)c1ccccc1)NCCC[Si]12OCCN(CCO1)CCO2,258.0,0.368766786,0.758,-8.3831,9.29273,296.18776494386924,0.024916235,0.0258,-8.4637,151.07241,-0.336,-8.64,6.21191,NaN,NaN,276.0,NaN,269.0,NaN,NaN
AXHAJFMESKQGKO-UHFFFAOYSA-N,SC(c1ccc(cc1)N)C(=O)O,SC(c1ccc(cc1)N)C(=O)O,259.6,0.036165075,1.3582,-7.9939,3.99677,296.1170250907658,0.046655161,0.0347,-8.1249,112.34895,-0.646,-8.561,3.5535,NaN,NaN,NaN,NaN,NaN,NaN,NaN
SOLMYUFYEJBNPZ-UHFFFAOYSA-N,Cn1c2cc3c(cc2c2c1cccc2)n(c1c3cccc1)C,Cn1c2cc3c(cc2c2c1cccc2)n(c1c3cccc1)C,336.7,0.087807697,0.475,-7.0307,0.01429,359.1662757980987,0.15432124,-0.191,-7.2732,0.52372,-0.574,-7.571,0.01266,NaN,NaN,283,52268,283,52268,NaN
RPPZLQUYHSTNCB-UHFFFAOYSA-N,CCCCOc1c(sc(c1OCCCC)c1nnc(o1)c1ccccc1)c1nnc(o1)c1ccccc1,COc1c(sc(c1OC)c1nnc(o1)c1ccccc1)c1nnc(o1)c1ccccc1,331.1,1.558422335,-0.4824,-8.0147,2.14122,459.3708721952711,0.934126448,-1.5397,-7.5882,25.90128,-1.809,-8.788,2.96844,338.6158487211237,1.2262011292,344,NaN,344,NaN,NaN
WYRRNWODRCSNHI-UHFFFAOYSA-N,O=C1CCN2C(=C1)C(C)(C)c1c2ccc2c1cccc2,O=C1CCN2C(=C1)C(C)(C)c1c2ccc2c1cccc2,320.3,0.096847823,0.308,-7.479,5.03445,344.9755103102495,0.000308038,-0.4387,-7.7404,72.49315,-0.872,-8.284,4.89671,NaN,NaN,261.0,31940.0,212.0,14340.0,NaN
XSKBAMYYMRYIGN-UHFFFAOYSA-N,OCc1c(nc2n1cccn2)c1ccc(cc1)C,OCc1c(nc2n1cccn2)c1ccc(cc1)C,305.7,0.163931252,0.0959,-8.0978,3.86941,387.4506200171989,0.301598133,-0.7747,-7.5121,85.76853,-0.995,-8.968,4.10149,NaN,NaN,240,NaN,240,NaN,NaN
AAROLUGLGDXGEZ-CFILSVQKSA-N,COC(=O)[C@H](C(C)C)NC(=O)[C@H](C(C)C)NC(=O)[C@@H](N1CCC(=C[C@H](C1)Cc1ccccc1)[C@@H](NC(=O)[C@@H](N)C)C)C,COC(=O)[C@H](C(C)C)NC(=O)[C@H](C(C)C)NC(=O)[C@@H](N1CCC(=C[C@H](C1)Cc1ccccc1)[C@@H](NC(=O)[C@@H](N)C)C)C,233.6,0.043069621,1.7971,-8.0705,2.98588,289.1422537441783,0.002706951,0.3298,-8.4174,146.90696,0.118,-9.266,7.11773,NaN,NaN,NaN,NaN,NaN,NaN,NaN
GQNSVLBGICBPMS-UHFFFAOYSA-N,CCOC(=O)C1=C(NC(=O)C1=Cc1cccs1)c1ccccc1,CCOC(=O)C1=C(NC(=O)C1=Cc1cccs1)c1ccccc1,353.5,0.726732834,-0.5591,-7.8191,3.25085,384.9245526404957,0.515660164,-1.0996,-7.8928,158.51545,-1.32,-8.887,3.45134,NaN,NaN,544.0,19500,432.0,19500,MTHF
KPGHFQYMENEVDU-UHFFFAOYSA-N,CC1(C)CC(c2ccccc2)C(=NO1)CO[N+](=O)[O-],CC1(C)CC(c2ccccc2)C(=NO1)CO[N+](=O)[O-],260.8,5.852e-05,0.7019,-9.2245,5.54736,381.48984124770357,6.6221e-05,-2.9427,-8.968,173.24086,-0.563,-9.675,4.37217,NaN,NaN,203,NaN,203,NaN,NaN
OVZFNOASMTVCQT-UHFFFAOYSA-N,N#Cc1nn(nc1N1CCN(CC1)c1ccccn1)c1ccc(cc1)OC,N#Cc1nn(nc1N1CCN(CC1)c1ccccn1)c1ccc(cc1)OC,284.7,0.651962131,0.3302,-7.8005,6.12515,365.95099883560704,0.50924267,-1.1161,-8.1592,84.70550,-0.993,-8.54,6.43982,NaN,NaN,320,NaN,320,NaN,NaN
VZHGHOOLQWRHIG-UHFFFAOYSA-N,Oc1ccc(cc1O)C(c1ccc(c(c1)O)O)(C)C,Oc1ccc(cc1O)C(c1ccc(c(c1)O)O)(C)C,249.2,0.055172168,1.6892,-7.9233,0.65005,296.96813989342195,0.034095604,0.3217,-8.109,119.50823,-0.04,-8.788,0.26514,NaN,NaN,224,NaN,224,NaN,NaN
UVZHMTNISXZIAE-UHFFFAOYSA-N,CC(c1cc2ccc3c4c2c(c1)ccc4ccc3c1ccc2c3c1ccc1c3c(cc2)ccc1)(C)C,CC(c1cc2ccc3c4c2c(c1)ccc4ccc3c1ccc2c3c1ccc1c3c(cc2)ccc1)(C)C,337.2,0.573513944,-0.0531,-7.3154,0.74007,368.3428354293038,0.560079979,-0.6468,-7.2068,115.05112,-1.094,-8.252,0.96104,NaN,NaN,350.0,NaN,348.0,NaN,DMF
YRKTWQVRZITEDC-UHFFFAOYSA-N,CCn1c2c(c3c1ccc(c3)c1ccccc1)c1c(c3c2c2cc(ccc2n3CC)c2ccccc2)c2c(n1CC)ccc(c2)c1ccccc1,CCn1c2c(c3c1ccc(c3)c1ccccc1)c1c(c3c2c2cc(ccc2n3CC)c2ccccc2)c2c(n1CC)ccc(c2)c1ccccc1,314.7,0.000189651,0.8316,-7.0647,2.22587,378.46214409494405,1.1699e-05,-0.0435,-7.1259,37.87322,-0.522,-7.866,4.20742,NaN,NaN,371.0,NaN,311.0,NaN,NaN
UWDXAOVMLGESTC-UHFFFAOYSA-N,CCOC(=O)C1C(=O)C=C(CC1c1ccc(cc1)OC)c1ccco1,CCOC(=O)C1C(=O)C=C(CC1c1ccc(cc1)OC)c1ccco1,310.3,0.00058095,-0.032,-8.3488,5.09451,368.23343749778337,0.002785184,-1.1028,-8.2537,83.72248,-1.017,-9.078,4.91716,NaN,NaN,331.0,NaN,331.0,NaN,NaN
MUENUUXWZZODFT-UHFFFAOYSA-N,CCCCCCOc1ccc(cc1)c1ccc(o1)C=C(C(=O)O)C#N,COc1ccc(cc1)c1ccc(o1)C=C(C(=O)O)C#N,346.4,0.959328287,-0.8519,-7.7822,5.11841,466.80797592433606,0.55699621,-1.738,-7.7447,134.56850,-1.728,-8.765,2.63965,378.0582192689113,0.7635948356,NaN,NaN,NaN,NaN,NaN
FQNDDQQAGAKGGT-UHFFFAOYSA-N,O=C1NNC(c2c1c1nc(c3ccccc3)c(nc1cc2)c1ccccc1)O,O=C1NNC(c2c1c1nc(c3ccccc3)c(nc1cc2)c1ccccc1)O,347.9,0.006771822,-0.6121,-8.4356,2.54144,380.7868501397533,0.003977081,-1.1988,-8.0506,185.30335,-1.518,-9.356,1.89864,NaN,NaN,367.0,NaN,318.0,NaN,DMF
TZTBDWSWBCTWNP-UHFFFAOYSA-N,C1Cc2c(C1)nc1c(c2)cc2c(n1)cccc2,C1Cc2c(C1)nc1c(c2)cc2c(n1)cccc2,334.5,0.090173068,-0.5035,-8.1484,4.04235,357.2002258873629,0.374444881,-0.9864,-8.0008,35.43198,-1.352,-9.019,4.6422,NaN,NaN,360,NaN,360,NaN,DMF
YOYXZWGIOVXYQG-UHFFFAOYSA-N,CCCOC(=O)c1cnccc1C(=O)OCCC,CCCOC(=O)c1cnccc1C(=O)OCCC,267.5,0.007284454,0.0728,-9.8445,3.42959,301.8115832655883,0.005159367,-1.0961,-9.7916,69.71226,-1.173,-10.641,3.19273,NaN,NaN,396,NaN,396,NaN,acetonitrile
ULVHVXMIOXWRTC-UHFFFAOYSA-N,CN(c1ccc(cc1)C=C([N+](=O)[O-])C#N)C,CN(c1ccc(cc1)C=C([N+](=O)[O-])C#N)C,323.9,1.074035628,-0.9983,-8.1266,11.03865,445.1856316176074,0.508617933,-2.5975,-8.4982,197.43644,-1.625,-8.737,10.99561,356.9533972742542,0.9021287855,481.0,NaN,275.0,NaN,NaN
BAYUCZMYAOFJJI-UHFFFAOYSA-N,COc1ccc(cc1)C=Cc1ccc(cc1)c1nc(c(n1c1ccc(cc1)Cl)c1ccccc1)c1ccccc1,COc1ccc(cc1)C=Cc1ccc(cc1)c1nc(c(n1c1ccc(cc1)Cl)c1ccccc1)c1ccccc1,327.6,1.835939516,0.1019,-7.2597,1.80810,361.25931936335564,0.540220995,-0.4486,-7.257,204.54326,-0.834,-8.464,1.86577,NaN,NaN,342,NaN,342,NaN,NaN
JOVRIPGYHSRFFR-UHFFFAOYSA-N,Brc1ccc(c2c1C(=O)c1ccccc1C2=O)N,Brc1ccc(c2c1C(=O)c1ccccc1C2=O)N,376.5,0.204897673,-1.0423,-8.142,3.33909,411.0881909996806,0.007971648,-1.7971,-8.626,234.56964,-1.543,-8.78,3.75405,NaN,NaN,482.0,NaN,398.3,NaN,NaN
NQGKQGKNHJOXER-UHFFFAOYSA-N,Clc1ccccc1N=Nc1c(N)nn2c1nc(N)c(c2N)N=Nc1nc2c(s1)cccc2,Clc1ccccc1N=Nc1c(N)nn2c1nc(N)c(c2N)N=Nc1nc2c(s1)cccc2,404.8,0.00639222,-1.0945,-7.6056,2.45113,538.3595241228991,0.01162748,-1.9655,-7.5865,160.62289,-1.82,-8.509,4.01068,NaN,NaN,498,NaN,498,NaN,NaN
PFXRYEKIQPYEDY-UHFFFAOYSA-N,CO[Si](CCCSC(=O)c1ccccn1)(OC)OC,CO[Si](CCCSC(=O)c1ccccn1)(OC)OC,303.6,0.000556567,-0.0284,-9.0935,3.56991,323.97229789784075,0.000400781,-0.1438,-9.3149,45.84543,-0.731,-9.04,2.67208,NaN,NaN,265,123300.0,265,123300.0,chloroform
QRLVXOSZSPJQPZ-UHFFFAOYSA-N,Clc1nc(C#Cc2ccc(cc2)N(C)C)cc(n1)C#Cc1ccc(cc1)N(C)C,Clc1nc(C#Cc2ccc(cc2)N(C)C)cc(n1)C#Cc1ccc(cc1)N(C)C,319.4,2.280458365,-0.2298,-7.385,8.34006,378.92481175276185,0.415687137,-0.8773,-7.6867,270.55364,-0.994,-8.285,6.93353,346.11186703489324,1.986817083,434,NaN,434,NaN,chloroform
KDGXMZLPKSMTSC-UHFFFAOYSA-N,COc1cc(cc(c1OC)OC)C(CC(=O)C)O,COc1cc(cc(c1OC)OC)C(CC(=O)C)O,256.5,3.6134e-05,1.3969,-8.5822,2.48960,334.0091551872404,8.315e-06,0.0805,-8.4527,43.42819,0.172,-8.787,2.38167,NaN,NaN,254,NaN,254,NaN,NaN
SWQSKCGFAYUEPA-UHFFFAOYSA-N,Clc1ccc(cc1)N=Nc1c(N)nc2n(c1N)nc(c2N=Nc1ccccc1)N,Clc1ccc(cc1)N=Nc1c(N)nc2n(c1N)nc(c2N=Nc1ccccc1)N,393.2,0.00053014,-0.7308,-7.409,2.38609,510.6433212747268,0.023955166,-1.5621,-7.4098,292.23949,-1.515,-8.381,2.81248,NaN,NaN,476,NaN,476,NaN,NaN
TZDKSMKEDHBJOV-UHFFFAOYSA-N,O=c1[nH][nH]c(=O)c2c1cc1nc3c(nc1c2)c1ccccc1c1c3cccc1,O=c1[nH][nH]c(=O)c2c1cc1nc3c(nc1c2)c1ccccc1c1c3cccc1,355.1,0.006254971,-1.1834,-8.5614,1.42260,385.64291883515915,0.613329555,-1.7747,-8.3958,215.54569,-1.926,-9.078,2.50971,NaN,NaN,411.0,NaN,267.0,NaN,DMF
AHNZXUSQSGGSQJ-UHFFFAOYSA-N,CCCCN(c1ccc(cc1)C(=O)Nc1ccc2c(c1)OCCOCCOCCOCCO2)CCCC,CN(c1ccc(cc1)C(=O)Nc1ccc2c(c1)OCCOCCOCCOCCO2)C,268.6,0.548881562,1.0548,-7.588,7.12557,308.9563877535601,0.044436641,-0.0176,-7.9876,166.92853,-0.269,-8.397,5.61795,NaN,NaN,325.0,NaN,314.0,NaN,DEE
ZNCMWZCNSPHNTM-UHFFFAOYSA-N,COc1cc2c(cc1Cl)c1c(n2C)cccc1,COc1cc2c(cc1Cl)c1c(n2C)cccc1,292.3,0.039654853,0.7342,-7.7693,3.50022,325.24711019282176,0.011607467,-0.2042,-7.9714,170.89521,-0.401,-8.311,5.1001,NaN,NaN,364.0,NaN,306.0,NaN,NaN
NLVVVUKDDRKMCZ-UHFFFAOYSA-N,O=C(c1ccc(cc1)Cn1c2ccccc2c2c1cccc2)NN=Cc1ccccc1,O=C(c1ccc(cc1)Cn1c2ccccc2c2c1cccc2)NN=Cc1ccccc1,286.6,0.058185322,0.1815,-7.7476,4.13948,316.12493219149326,0.021115969,-0.5357,-7.9013,113.45471,-0.715,-8.397,3.42495,NaN,NaN,295,NaN,295,NaN,NaN
LZBBNWIOKRKLPX-UHFFFAOYSA-N,c1ccc(cc1)NN=Cc1cccc2c1cccc2,c1ccc(cc1)NN=Cc1cccc2c1cccc2,330.0,0.77624145,0.0906,-7.2852,1.83997,319.87667287281647,0.41232921,-0.3506,-7.7057,23.19436,-0.647,-8.46,1.43133,NaN,NaN,583.0,NaN,350.0,NaN,NaN
LTPONJNHXZIRON-UHFFFAOYSA-N,CCOC(=O)Cn1cc(C(=O)c2ccccc2Cc2ccccc2)c(=O)c2c1cccc2,CCOC(=O)Cn1cc(C(=O)c2ccccc2Cc2ccccc2)c(=O)c2c1cccc2,294.3,0.057147069,0.2862,-8.2864,4.67134,385.1637104861872,0.00019038,-0.9951,-8.3045,87.30820,-0.662,-8.922,7.29122,NaN,NaN,467.0,NaN,328.0,NaN,NaN
OZITVSDBFLXTCN-UHFFFAOYSA-N,ClCc1cc(=O)oc2c1cc1nc(oc1c2)c1cccc(c1)N(C)C,ClCc1cc(=O)oc2c1cc1nc(oc1c2)c1cccc(c1)N(C)C,311.3,0.436931199,-0.3536,-7.749,5.87961,357.2002258873629,0.489675934,-1.1732,-8.1607,298.65676,-1.525,-8.552,5.94049,NaN,NaN,339,10471.285480508985,339,10471.285480508985,NaN
DWXAEOGVUIRZIM-UHFFFAOYSA-N,CCN(c1ccc(cc1)C=C1CCCCC(=Cc2ccc(cc2)N(CC)CC)C1=O)CC,CCN(c1ccc(cc1)C=C1C(=Cc2ccc(cc2)N(CC)CC)C1=O)CC,443.8,1.761367594,-0.8214,-6.5048,6.99758,457.0003627184064,0.813310985,-1.3121,-7.1019,108.35105,-1.005,-7.608,5.63911,499.292014373548,1.3754074513,744.0,36300.0,395.0,36300.0,NaN
SNIDNYCMPIQUJA-UHFFFAOYSA-N,Cc1ccc(cc1)N=Nc1c(=O)[nH]c2n(c1N)c1ccccc1n2,Cc1ccc(cc1)N=Nc1c(=O)[nH]c2n(c1N)c1ccccc1n2,401.1,9.3438e-05,-0.3793,-7.9515,5.31698,523.8031195838769,0.003996906,-1.3755,-7.9222,114.56644,-1.287,-8.749,6.36448,NaN,NaN,422.0,NaN,390.0,NaN,Chloroform
OJBZDUMTXGGVSP-UHFFFAOYSA-N,CCN(c1ccc2c(c1)oc(=O)c(c2)C(=O)NC=CN1C(=O)CCC1=O)CC,CCN(c1ccc2c(c1)oc(=O)c(c2)C(=O)NC=CN1C(=O)CCC1=O)CC,315.9,1.32254247,-0.2996,-7.7696,7.12761,386.3639713477833,0.633836077,-1.431,-8.0309,268.82025,-1.188,-8.225,7.54596,338.84720691237897,1.138714954,NaN,NaN,NaN,NaN,NaN
BQSKQGGQDUBLNS-UHFFFAOYSA-N,Fc1ccc(cc1)n1nc(cc1NS(=O)(=O)c1cc(cc(c1)C(F)(F)F)C(F)(F)F)c1cccs1,Fc1ccc(cc1)n1nc(cc1NS(=O)(=O)c1cc(cc(c1)C(F)(F)F)C(F)(F)F)c1cccs1,266.3,0.783801164,-0.3365,-8.233,2.40561,349.25126311409485,0.668221951,-1.4351,-8.1283,249.71820,-1.788,-9.013,1.6426,NaN,NaN,543.0,NaN,265.0,NaN,NaN
IIPDKVKBZNLDMD-UHFFFAOYSA-N,C#Cc1c2ccccc2c(c2c1cccc2)C#C,C#Cc1c2ccccc2c(c2c1cccc2)C#C,393.5,0.367006313,-0.8061,-7.4348,0.00011,421.57156887284486,0.415833453,-1.0689,-7.0957,0.00336,-1.565,-8.258,0.00023,NaN,NaN,242,107375,242,107375,NaN
UYTWBCVNHAVZQG-UHFFFAOYSA-N,OCCN(c1ccc(cc1)C=C1C(=O)N(CC)C(=S)N(C1=O)CC)C,OCCN(c1ccc(cc1)C=C1C(=O)N(CC)C(=S)N(C1=O)CC)C,340.2,0.057813351,-0.857,-7.8799,8.21800,476.86230155962943,0.003256529,-1.7441,-8.2011,170.30910,-1.454,-8.497,7.17206,NaN,NaN,504.0,75857.75750291836,425.0,52480.74602497723,DMF
LWTGGJWTTCVSJY-UHFFFAOYSA-N,CONc1c(cc(cc1[N+](=O)[O-])C(=O)NCC1COCCOCCOCCOCCOCCO1)[N+](=O)[O-],CONc1c(cc(cc1[N+](=O)[O-])C(=O)NCC1COCCOCCOCCOCCOCCO1)[N+](=O)[O-],333.0,0.115211369,-1.0664,-9.0481,1.97645,477.7811113892241,0.012330007,-3.088,-9.6831,280.25320,-1.872,-9.533,4.03256,NaN,NaN,374,4365.158322401661,374,4365.158322401661,methanol
DEQXIBKODYFWGC-UHFFFAOYSA-N,CCCCCCOc1cc2c3cc(OCCCCCC)c(cc3c3c(c2cc1OCCCCCC)cc(c(c3)C(=O)OC)C(=O)OC)OCCCCCC,COc1cc2c3cc(OC)c(cc3c3c(c2cc1OC)cc(c(c3)C(=O)OC)C(=O)OC)OC,309.8,0.005537029,0.1483,-7.7199,2.00154,358.54308387942064,0.033156873,-0.9624,-7.9141,99.17303,-1.088,-8.291,3.99463,NaN,NaN,386.0,76000,290.0,76000,NaN
OLRFGYCLUFURQH-UHFFFAOYSA-N,COc1ccc(s1)C=Cc1sc(c(c1[N+](=O)[O-])[N+](=O)[O-])C=Cc1ccc(s1)OC,COc1ccc(s1)C=Cc1sc(c(c1[N+](=O)[O-])[N+](=O)[O-])C=Cc1ccc(s1)OC,397.4,1.510865496,-1.0473,-7.4753,8.26298,587.0463939654529,0.128613559,-2.5705,-7.7374,96.48872,-1.952,-8.814,8.78255,439.19303226793994,1.2808672565,488,25000,488,25000,CH2Cl2 ( c 2 × 10–5 mol / l )
CIKXMSYOZSDGRF-UHFFFAOYSA-N,CC1(C)c2ccccc2C(c2c1cccc2)(C)C,CC1(C)c2ccccc2C(c2c1cccc2)(C)C,231.7,0.0,1.4691,-8.7067,0.00017,281.3346911856221,0.025564594,0.7182,-8.2084,0.00673,0.364,-9.13,0.00102,NaN,NaN,256,NaN,256,NaN,hexane
QZQKMZUYHSNNMQ-UHFFFAOYSA-N,COc1cc(OC)ccc1C1(COC2C(=C1)c1ccccc1C=C2)c1ccc(cc1OC)OC,COc1cc(OC)ccc1C1(COC2C(=C1)c1ccccc1C=C2)c1ccc(cc1OC)OC,291.4,0.171645505,0.7592,-7.572,3.35564,322.62346709732935,0.227882926,0.0603,-7.4087,61.81941,-0.256,-8.3,2.16399,NaN,NaN,486.0,NaN,483.0,NaN,NaN
SBWVQZWJKKQZLQ-GOSISDBHSA-N,COC(=O)c1cc2ccccc2cc1c1cc2ccccc2cc1C(=O)N[C@@H](C(C)(C)C)C,COC(=O)c1cc2ccccc2cc1c1cc2ccccc2cc1C(=O)N[C@@H](C(C)(C)C)C,290.9,0.062906238,0.0584,-8.08,5.17173,323.5495783024626,0.019544398,-0.5325,-8.0618,73.70850,-0.965,-9.032,4.60606,NaN,NaN,227.0,21200,227.0,21200,NaN
VBQNYYXVDQUKIU-UHFFFAOYSA-N,Clc1cccc2c1C(=O)c1c(C2=O)cccc1Cl,Clc1cccc2c1C(=O)c1c(C2=O)cccc1Cl,360.4,0.001075143,-1.203,-9.5089,2.54526,399.3049868132163,0.00044544,-1.9663,-9.8231,153.12134,-1.764,-10.074,3.65155,NaN,NaN,339,NaN,339,NaN,NaN
VKMCOSXYFKYAFL-UHFFFAOYSA-N,COc1ccc(cc1)C(=O)OCc1ccc2c3c1cccc3c1c3c2cccc3ccc1,COc1ccc(cc1)C(=O)OCc1ccc2c3c1cccc3c1c3c2cccc3ccc1,392.3,0.632645215,-0.5775,-7.1774,3.92986,411.6341248522698,0.662088739,-0.9151,-6.9609,151.43987,-1.398,-8.115,3.92953,NaN,NaN,447.0,NaN,439.0,NaN,NaN
IRXDUNDBRIVFOK-UHFFFAOYSA-N,COc1ccc(cc1)c1nc(C#N)c(nc1c1ccc(cc1)OC)C#N,COc1ccc(cc1)c1nc(C#N)c(nc1c1ccc(cc1)OC)C#N,314.9,0.391032304,-0.8869,-8.3397,11.64222,369.00059049257044,0.422189037,-1.3748,-8.203,133.22223,-1.989,-9.158,8.76873,NaN,NaN,385.0,NaN,314.0,NaN,NaN
AFDXODALSZRGIH-UHFFFAOYSA-N,COc1ccc(cc1)C=CC(=O)O,COc1ccc(cc1)C=CC(=O)O,273.8,0.615598678,0.1059,-8.2554,3.61384,303.80837639182465,0.476967697,-0.9379,-8.6299,86.86107,-0.821,-9.135,3.94553,NaN,NaN,370,NaN,370,NaN,NaN
GGQGUBWFVKJOER-FQEVSTJZSA-N,CN1CCc2c([C@@]31Cc1c(C3=O)c3OCOc3cc1)cc1c(c2)OCO1,CN1CCc2c([C@@]31Cc1c(C3=O)c3OCOc3cc1)cc1c(c2)OCO1,321.3,0.008226342,0.3539,-7.7891,2.48065,374.6878162753208,0.006208169,-0.6205,-8.2366,110.32666,-0.659,-8.697,1.82715,NaN,NaN,NaN,NaN,NaN,NaN,NaN
MOIYLYXXVKLUMK-UHFFFAOYSA-N,N#CC1=C2C(=NC1=O)c1c3c2ccc(c3ccc1)O,N#CC1=C2C(=NC1=O)c1c3c2ccc(c3ccc1)O,432.5,0.035294788,-1.6988,-8.5078,10.14832,439.50442540058015,0.051410045,-2.0375,-8.4518,79.51860,-2.091,-9.399,9.26644,NaN,NaN,504,NaN,504,NaN,NaN
CDHWFHZZBKCHQV-UHFFFAOYSA-N,C(=Cc1ncnc(c1)C=CC=C1C=C(OC(=C1)c1ccccc1)c1ccccc1)C=C1C=C(OC(=C1)c1ccccc1)c1ccccc1,C(=Cc1ncnc(c1)C=CC=C1C=C(OC(=C1)c1ccccc1)c1ccccc1)C=C1C=C(OC(=C1)c1ccccc1)c1ccccc1,409.5,3.196659516,-0.4654,-6.8044,3.60290,430.7998554743004,1.874816625,-0.9667,-6.9485,39.45331,-1.033,-7.97,3.72837,442.6426026748998,2.6536811812,503.0,NaN,303.0,NaN,dichloromethane
YRHFDMKFCDCIFA-UHFFFAOYSA-N,COc1ccc(cc1)c1cn2c(n1)cc(cc2)C=Cc1ccccc1,COc1ccc(cc1)c1cn2c(n1)cc(cc2)C=Cc1ccccc1,323.0,1.338216758,-0.023,-7.3342,1.88999,377.4252615083825,0.543173728,-0.5472,-7.2438,101.93117,-0.912,-8.368,2.06892,333.1923168128764,1.3670185132,433.0,28840.31503126606,360.0,21877.616239495517,Toluene
HFIHDXWPPZZNGY-UHFFFAOYSA-N,CCCCNc1nn(nc1C#N)c1ccc(cc1)OC,CNc1nn(nc1C#N)c1ccc(cc1)OC,283.4,0.713258689,0.3991,-7.9461,6.15245,367.5784121123737,0.565629837,-1.1153,-8.1366,71.88938,-0.961,-8.693,4.726,NaN,NaN,329,NaN,329,NaN,NaN
YFPMWQBCLFVHOE-UHFFFAOYSA-N,CCCCCCCCCCCCOc1c(OCCCCCCCCCCCC)c(C#Cc2ccc(cc2)OCCCCCCCCCCCC)c2c(c1C#Cc1ccc(cc1)OCCCCCCCCCCCC)nsn2,COc1c(OC)c(C#Cc2ccc(cc2)OC)c2c(c1C#Cc1ccc(cc1)OC)nsn2,396.6,1.366474722,-0.8163,-7.243,1.92767,551.776583914124,0.536415294,-1.8842,-7.2566,124.61471,-1.751,-8.191,0.90259,428.21093116405143,1.0103675822,429,NaN,429,NaN,NaN
WTGQAIWXLXHQRV-UHFFFAOYSA-N,c1ccc2c(c1)c(C=Cc1cc3ccccc3c3c1cccc3)cc1c2cccc1,c1ccc2c(c1)c(C=Cc1cc3ccccc3c3c1cccc3)cc1c2cccc1,313.6,0.195214914,0.3042,-7.5843,0.31085,337.5556722175433,0.013624601,-0.1978,-7.4195,6.44536,-0.76,-8.698,0.22114,NaN,NaN,340,NaN,340,NaN,NaN
KDCGOANMDULRCW-UHFFFAOYSA-N,c1ncc2c(n1)nc[nH]2,c1ncc2c(n1)nc[nH]2,279.3,0.007334236,0.4452,-9.5429,5.87208,319.0535213728864,0.00209243,-0.5354,-8.7471,11.51888,-1.111,-10.104,6.13942,NaN,NaN,226,NaN,226,NaN,NaN
TUISJIQVQDGXNS-UHFFFAOYSA-N,CCOC(=O)c1c(O)c(N=Nc2ccc(cc2)OC)c2c(c1O)cccc2,CCOC(=O)c1c(O)c(N=Nc2ccc(cc2)OC)c2c(c1O)cccc2,394.8,0.000747875,-0.4079,-7.3395,2.68382,548.360010639114,0.010106944,-1.5129,-7.6831,95.77946,-1.246,-8.36,2.78517,NaN,NaN,485.0,NaN,440.0,NaN,DMSO
OYEQPGOUOHNIFF-UHFFFAOYSA-N,Nc1nc2c(N=Nc3ccccc3)c(nn2c(c1N=Nc1ccccc1)N)N,Nc1nc2c(N=Nc3ccccc3)c(nn2c(c1N=Nc1ccccc1)N)N,390.8,0.003713851,-0.5639,-7.3438,4.02655,510.8537223135709,0.026450625,-1.3384,-7.2973,45.72600,-1.308,-8.297,4.98812,NaN,NaN,465,NaN,465,NaN,NaN
NSXJEEMTGWMJPY-UHFFFAOYSA-N,c1cc(cc(c1)n1c2ccccc2c2c1cccc2)c1cccc(c1)n1c2ccccc2c2c1cccc2,c1cc(cc(c1)n1c2ccccc2c2c1cccc2)c1cccc(c1)n1c2ccccc2c2c1cccc2,284.2,0.050071773,0.6675,-7.7134,2.19719,323.2964756336471,0.078982035,0.018,-7.7184,4.65753,-0.551,-8.25,1.93115,NaN,NaN,293,NaN,293,NaN,NaN
HWMRXZSUBAGZCK-UHFFFAOYSA-N,Clc1cccc(c1)n1cccc1,Clc1cccc(c1)n1cccc1,245.0,0.021751869,1.0176,-8.4633,1.53990,284.49793117371195,0.01241646,-0.0709,-8.3025,127.53079,-0.787,-9.105,1.80916,NaN,NaN,311,NaN,311,NaN,CHCl3
IOELFWISZCVSFL-UHFFFAOYSA-N,CC(c1ccc(cc1)C=c1oc(=Cc2ccccc2)c2c1cccc2)(C)C,CC(c1ccc(cc1)C=c1oc(=Cc2ccccc2)c2c1cccc2)(C)C,353.2,0.844778639,-0.1105,-7.1425,1.57307,364.3379324287501,0.348709918,-0.4115,-7.2652,105.98521,-1.023,-8.251,1.72711,367.16475067886597,0.6600864036,375,30200.0,375,30200.0,NaN
XXQOYUHNKHMELZ-RHSMWYFYSA-N,FC1=C(O[C@@H]([C@H]1O[Si](C(C)(C)C)(C)C)CO[Si](C(C)(C)C)(C)C)n1ccc(=O)[nH]c1=O,FC1=C(O[C@@H]([C@H]1O[Si](C(C)(C)C)(C)C)CO[Si](C(C)(C)C)(C)C)n1ccc(=O)[nH]c1=O,236.4,0.001114547,0.6828,-8.7761,5.79223,304.4798585596848,0.000549133,-0.8555,-8.74,161.60034,-0.684,-9.042,4.90249,NaN,NaN,261,NaN,261,NaN,MeOH
NUZYMQYNSGGPJF-UHFFFAOYSA-N,c1cc(C#Cc2ccc(cc2)n2c3ccccc3c3c2cccc3)c2c(c1)nsn2,c1cc(C#Cc2ccc(cc2)n2c3ccccc3c3c2cccc3)c2c(c1)nsn2,347.6,0.869211589,-0.9612,-7.6578,1.90230,468.9266202931303,0.440801602,-1.8977,-7.5436,345.51278,-1.806,-8.212,1.22013,366.9908625658283,0.702187944,236,NaN,236,NaN,NaN