inchikey,smi_pre,smi_post,lambda_sTDA (nm),f1_sTDA,lumo_dft,homo_dft,dmom_dft (D),lambda_z (nm),f1_z,lumo_z,homo_z,dmom_z (D),lumo_mopac,homo_mopac,dmom_mopac (D),lambda_tddft (nm),f1_tddft,lambda_exp_max (nm),epsilon_exp_max ,lambda_exp_min (nm),epsilon_exp_min ,solvent
MQCVXCZFGFIWNB-UHFFFAOYSA-N,C1=c2ccc(=c3ccc(=CC=c4[nH]c(=c5[nH]c(=C1)cc5)cc4)[nH]3)[nH]2,C1=c2ccc(=c3ccc(=CC=c4[nH]c(=c5[nH]c(=C1)cc5)cc4)[nH]3)[nH]2,1826.0,1e-09,-0.9762,-5.4177,0.00016,678.6217756185204,5.599e-06,-0.9483,-6.1535,0.35627,-1.467,-7.054,0.0417,NaN,NaN,NaN,NaN,NaN,NaN,NaN
QJDFWHMQHAEUOK-UHFFFAOYSA-N,COc1ccc(cc1)CNc1ncnc2c1nc(n2Cc1ccccc1)C=Cc1ccc(cc1)C#N,COc1ccc(cc1)CNc1ncnc2c1nc(n2Cc1ccccc1)C=Cc1ccc(cc1)C#N,332.5,1.368279494,-0.6399,-7.751,3.67529,370.4338165685798,0.739902105,-0.9887,-7.6816,49.81941,-1.175,-8.511,3.70677,350.56463089671007,1.0150018841,369,NaN,369,NaN,NaN
NNXFWOSAZDRABD-UHFFFAOYSA-N,Cc1sc(c(c1)c1c(c2cc(sc2C)C)c2cc(ccc2c2c1cc(cc2)C(=O)O)C(=O)O)C,Cc1sc(c(c1)c1c(c2cc(sc2C)C)c2cc(ccc2c2c1cc(cc2)C(=O)O)C(=O)O)C,316.2,0.062980422,-0.3903,-8.0153,3.70970,374.3484251373903,0.098098418,-1.3414,-7.8447,47.66105,-1.368,-8.878,3.53614,NaN,NaN,405.4,NaN,405.4,NaN,NaN
KORSIELYPZWUIM-UHFFFAOYSA-N,CCOC(=O)C1=C(c2ccccc2)N(C(=O)C1=Cc1ccc(cc1)C=Cc1ccccc1)C,CCOC(=O)C1=C(c2ccccc2)N(C(=O)C1=Cc1ccc(cc1)C=Cc1ccccc1)C,372.8,1.310269615,-0.6384,-7.5672,2.26698,374.1225057498602,0.68389615,-0.9477,-7.7528,133.40449,-1.117,-8.681,2.56897,404.1469229064458,0.997371907,429,25300,429,25300,NaN
LHMMTUAQDBKCBX-UHFFFAOYSA-N,Cc1ccc(cc1)C1=C2C=CC(=N2)C(=c2ccc(=C(C3=NC(=C(c4[nH]c1cc4)c1ccc(cc1)[N+](=O)[O-])C=C3)c1ccc(cc1)C)[nH]2)c1ccc(cc1)C,Cc1ccc(cc1)C1=C2C=CC(=N2)C(=c2ccc(=C(C3=NC(=C(c4[nH]c1cc4)c1ccc(cc1)[N+](=O)[O-])C=C3)c1ccc(cc1)C)[nH]2)c1ccc(cc1)C,640.0,0.011479659,-1.2615,-6.8849,6.84140,607.7656784583513,0.010615249,-2.3192,-6.9272,368.42288,-1.878,-8.031,7.31269,NaN,NaN,416,169824.3652461746,416,169824.3652461746,CH 2 Cl 2
LNQMQGXHWZCRFZ-UHFFFAOYSA-N,c1ccc(cc1)[Si](c1ccccc1)(c1ccccc1)c1ccc(cc1)c1ccc(cc1)[Si](c1ccccc1)(c1ccccc1)c1ccccc1,c1ccc(cc1)[Si](c1ccccc1)(c1ccccc1)c1ccc(cc1)c1ccc(cc1)[Si](c1ccccc1)(c1ccccc1)c1ccccc1,259.0,0.738083621,0.5863,-8.4248,0.02788,280.57071374859396,0.016504879,0.3795,-8.0687,0.53917,-0.25,-9.138,0.01543,NaN,NaN,272,NaN,272,NaN,NaN
NPDHRUHGDBZEHF-UHFFFAOYSA-N,COc1ccc(cc1)N1c2ccc(cc2Oc2c1cccc2)c1ccc(o1)C=C(C(=O)O)C#N,COc1ccc(cc1)N1c2ccc(cc2Oc2c1cccc2)c1ccc(o1)C=C(C(=O)O)C#N,393.4,0.825578002,-0.7797,-6.9337,7.40684,476.1297941839618,0.618594083,-1.6435,-7.4384,258.78638,-1.725,-7.941,3.48069,424.60340071657345,0.7829097827,508,NaN,508,NaN,NaN
YRQLQFJNXSHKIF-UHFFFAOYSA-N,N#Cc1nc2c(nc1C#N)c(c(n2CC)C)C(=O)C,N#Cc1nc2c(nc1C#N)c(c(n2CC)C)C(=O)C,304.2,0.076949223,-1.0322,-9.453,8.43514,364.23090013367704,0.382689056,-1.7577,-8.8401,103.19197,-1.881,-10.011,7.94288,NaN,NaN,326,NaN,326,NaN,NaN
ALEJBDQSCWQTGN-UHFFFAOYSA-N,CCN(c1ccc2c(c1)oc(=O)c1c2O[B-](F)(F)[N+](=N1)c1ccc(cc1)OC)CC,CCN(c1ccc2c(c1)oc(=O)c1c2O[B-](F)(F)[N+](=N1)c1ccc(cc1)OC)CC,381.3,1.491617101,-1.0738,-7.7654,6.55197,486.4032891545848,0.808365407,-2.227,-8.1179,205.06500,-1.278,-8.734,5.20012,NaN,NaN,546.0,NaN,505.0,NaN,DMF
MJZXFMSIHMJQBW-UHFFFAOYSA-N,Nc1ccc(cc1)c1nnc(o1)c1ccc(cc1)N,Nc1ccc(cc1)c1nnc(o1)c1ccc(cc1)N,291.2,1.154984482,0.8763,-7.2211,5.13619,378.46214409494405,0.724102932,-0.5681,-7.4025,32.63408,-0.639,-8.195,6.49169,295.4185065387296,1.1412825248,288,NaN,288,NaN,NaN
WACJCHFWJNNBPR-ZETCQYMHSA-N,OC(=O)[C@@H](NCc1c(cnc(c1O)C)COP(=O)(O)O)C,OC(=O)[C@@H](NCc1c(cnc(c1O)C)COP(=O)(O)O)C,246.2,0.121058889,0.8282,-8.9923,6.55315,291.45321675012616,0.097656364,0.0343,-8.6107,179.29249,-0.708,-9.194,3.07722,NaN,NaN,NaN,NaN,NaN,NaN,NaN
NGFBWEFHOGBPOA-UHFFFAOYSA-N,Oc1ccccc1c1[nH]c2c(n1)c1c(=O)[nH][nH]c(=O)c1cc2,Oc1ccccc1c1[nH]c2c(n1)c1c(=O)[nH][nH]c(=O)c1cc2,302.5,0.62827869,-0.3246,-8.2015,3.61970,365.73509854130873,0.534400391,-1.2845,-8.2509,121.98428,-1.504,-8.905,3.95903,NaN,NaN,469.0,NaN,100.8,NaN,NaN
FUJRGMIZTJWJCU-UHFFFAOYSA-N,COC(=O)c1ccc(nc1)c1ccc(cn1)c1ccc(cc1)C,COC(=O)c1ccc(nc1)c1ccc(cn1)c1ccc(cc1)C,287.2,1.142524082,-0.2609,-8.3548,2.81346,333.0222895662199,0.916969226,-1.059,-8.1432,212.52623,-1.369,-9.238,3.45182,293.44676577889146,0.87551175,339.0,NaN,317.0,NaN,NaN
ZJGWKWLPJPAFIZ-UHFFFAOYSA-N,n1csc(n1)N=Nc1ccc(s1)c1cccs1,n1csc(n1)N=Nc1ccc(s1)c1cccs1,471.7,0.000984727,-1.3544,-8.0633,4.21373,555.9829524910479,0.007306779,-2.0333,-7.777,109.66201,-2.107,-9.221,4.8714,NaN,NaN,494.0,NaN,466.0,NaN,DMSO
DUJITDZQECNAOC-UHFFFAOYSA-N,O=P(c1ccc(s1)c1ccc(cc1)n1c2ccccc2c2c1cccc2)(c1ccccc1)c1ccccc1,O=P(c1ccc(s1)c1ccc(cc1)n1c2ccccc2c2c1cccc2)(c1ccccc1)c1ccccc1,289.1,0.944418813,0.0769,-7.7186,3.07811,330.6245290813431,0.701685067,-0.3413,-7.7137,232.02043,-0.932,-8.27,3.20636,302.2309265759195,0.9884321957,319.0,NaN,290.0,NaN,NaN
MTCPYQWOUGPICT-UHFFFAOYSA-N,CCCCCCCCOc1c(OCCCCCCCC)c2sc1C(=C1C=CC(=N1)C(=c1ccc(=C(C3=NC(=C2c2ccccc2)C=C3)c2ccccc2)[nH]1)c1ccccc1)c1ccccc1,COc1c(OC)c2sc1C(=C1C=CC(=N1)C(=c1ccc(=C(C3=NC(=C2c2ccccc2)C=C3)c2ccccc2)[nH]1)c1ccccc1)c1ccccc1,637.6,0.016695481,-1.2325,-6.8053,1.96963,551.5311316970802,0.225201554,-1.2737,-6.7705,116.85313,-1.671,-7.753,2.01717,NaN,NaN,680.0,199526.2314968879,431.0,2691.5348039269165,NaN
LLYXJBROWQDVMI-UHFFFAOYSA-N,[O-][N+](=O)c1ccc(c(c1)Cl)C,[O-][N+](=O)c1ccc(c(c1)Cl)C,314.7,3.7e-08,-0.5839,-9.6861,4.56940,335.00188707242273,0.302563732,-2.6812,-10.087,82.78276,-1.488,-10.325,5.2171,NaN,NaN,100,NaN,100,NaN,NaN
UUPYTBMDOMIVMK-UHFFFAOYSA-N,OCc1cc(C)cc(c1O)C=NNc1cccc2c1cccc2,OCc1cc(C)cc(c1O)C=NNc1cccc2c1cccc2,326.5,0.731027467,0.2164,-7.5007,4.49482,336.6391485351715,0.454800083,-0.5326,-7.5704,55.68300,-0.856,-8.333,4.53432,NaN,NaN,398,NaN,398,NaN,NaN
AAQUOGNHDWRBPW-UHFFFAOYSA-N,Cc1nc2n(c1N=Nc1ccc(cc1)C(=O)C)nc(c1c2c(c2ccccc2)n(n1)c1ccccc1)C,Cc1nc2n(c1N=Nc1ccc(cc1)C(=O)C)nc(c1c2c(c2ccccc2)n(n1)c1ccccc1)C,438.1,0.001271537,-0.7189,-7.6495,8.86635,501.351388619101,0.057383531,-1.3305,-7.4023,121.10677,-1.424,-8.572,8.85665,NaN,NaN,425.0,NaN,295.0,NaN,NaN
ZEGLTUXQMYOJPD-UHFFFAOYSA-N,Cc1cccc(n1)c1nc2c([nH]1)c1ccccc1c1c2cccc1,Cc1cccc(n1)c1nc2c([nH]1)c1ccccc1c1c2cccc1,305.8,0.490435023,0.287,-7.4415,3.00301,399.94902711452795,0.608704855,-0.654,-7.0718,24.28871,-0.915,-8.397,3.12816,NaN,NaN,367.0,NaN,346.0,NaN,NaN
JYSFEIIDTJRSTL-UHFFFAOYSA-N,Cc1ccc2c(c1)[nH]c(n2)c1ccc(cc1)c1ccc(cc1)c1ccc(cc1)c1nc2c([nH]1)cc(cc2)C,Cc1ccc2c(c1)[nH]c(n2)c1ccc(cc1)c1ccc(cc1)c1ccc(cc1)c1nc2c([nH]1)cc(cc2)C,309.8,2.79535885,-0.0597,-7.6519,1.29377,360.41918141134784,1.477122533,-0.6331,-7.4638,2.37167,-0.971,-8.612,3.53286,NaN,NaN,351,NaN,351,NaN,NaN
OEJADSRYBRUMAI-UHFFFAOYSA-N,Oc1cc2[nH]c3c(c2cc1Cl)cccc3,Oc1cc2[nH]c3c(c2cc1Cl)cccc3,281.8,0.036733119,0.8194,-7.8483,1.79704,321.2025865427556,0.01216806,-0.2672,-8.0238,178.59702,-0.617,-8.722,2.12138,NaN,NaN,352.0,NaN,304.0,NaN,NaN
KFUPZBPAIPFCFI-UHFFFAOYSA-N,Brc1cccc(c1)N=Nc1ccc(c(c1)C=Nc1ccccc1O)O,Brc1cccc(c1)N=Nc1ccc(c(c1)C=Nc1ccccc1O)O,436.0,0.00088704,-0.6852,-7.904,6.18280,529.3945277775562,3.46e-07,-1.5449,-7.9421,386.68638,-1.48,-8.736,3.60156,NaN,NaN,487.0,NaN,356.0,NaN,NaN
ULABDYASLGVZPU-UHFFFAOYSA-N,ClCCN(c1ccc2c(c1)oc(=O)c(c2)C(=O)OCC)CCCl,ClCCN(c1ccc2c(c1)oc(=O)c(c2)C(=O)OCC)CCCl,308.2,0.790962794,-0.3934,-8.1851,3.93775,372.99698677949357,0.556754573,-1.684,-8.5681,178.24413,-1.335,-8.998,4.70292,NaN,NaN,402,NaN,402,NaN,NaN
YVYGGBFCYXRNKM-UHFFFAOYSA-N,Fc1ccc2c(c1)c(CCCOP(=O)(O)O)c[nH]2,Fc1ccc2c(c1)c(CCCOP(=O)(O)O)c[nH]2,269.2,0.082867038,1.109,-8.0401,1.94546,311.98842074862523,0.007080338,0.0072,-7.8801,133.00890,-0.4,-8.599,1.63831,NaN,NaN,NaN,NaN,NaN,NaN,NaN
ASUISBOBBFQINJ-UHFFFAOYSA-N,OCCC#Cc1c(CCO)oc(=O)c2c1ccs2,OCCC#Cc1c(CCO)oc(=O)c2c1ccs2,282.8,0.173730533,0.1863,-8.1784,3.21096,384.5663722255076,0.10958068,-1.2016,-8.1014,137.70136,-1.328,-8.731,3.14089,NaN,NaN,NaN,NaN,NaN,NaN,NaN
KDYQLXNFKCUYIJ-UHFFFAOYSA-N,CCOc1ccc(cc1)N(c1ccc(cc1)OCC)c1ccc(cc1)C(n1cccn1)n1cccn1,CCOc1ccc(cc1)N(c1ccc(cc1)OCC)c1ccc(cc1)C(n1cccn1)n1cccn1,301.0,0.062454228,1.2,-6.9444,3.54599,319.87667287281647,0.133405558,0.2961,-7.1987,104.50586,-0.272,-7.858,4.97181,NaN,NaN,300.0,28700.0,294.0,23500.0,Dimethylformamide
PFMTUGNLBQSHQC-UHFFFAOYSA-N,O=C1c2cccnc2c2c1cccn2,O=C1c2cccnc2c2c1cccn2,349.9,3.2e-08,-0.8626,-9.1549,0.46529,378.80903881913736,0.003725085,-1.3994,-8.707,10.39838,-1.704,-10.035,1.07533,NaN,NaN,303,NaN,303,NaN,NaN
XOCQZOWSLRTFIB-UHFFFAOYSA-N,O=c1nc(N)n(c2c1n(cn2)Cc1ccccc1)C,O=c1nc(N)n(c2c1n(cn2)Cc1ccccc1)C,242.1,0.007151096,1.294,-8.2248,4.86466,323.4651667245073,0.000969299,-0.3968,-8.2439,75.42312,-0.228,-8.835,4.04464,NaN,NaN,NaN,NaN,NaN,NaN,NaN
RMBFBMJGBANMMK-UHFFFAOYSA-N,[O-][N+](=O)c1ccc(c(c1)[N+](=O)[O-])C,[O-][N+](=O)c1ccc(c(c1)[N+](=O)[O-])C,316.9,0.00869051,-0.9979,-10.5264,4.86387,443.2756467840674,0.00169332,-3.0052,-10.5463,82.52052,-1.945,-11.07,5.47808,NaN,NaN,446.0,NaN,446.0,NaN,NaN
CWOYLIJQLSNRRN-UHFFFAOYSA-N,CC1=NCCc2c1[nH]c1c2cccc1,CC1=NCCc2c1[nH]c1c2cccc1,295.8,0.21245216,0.6706,-7.7215,1.96079,342.971503196414,0.362640127,-0.3128,-7.6283,12.17390,-0.411,-8.429,1.98789,NaN,NaN,1797,NaN,1797,NaN,NaN
MDHYEMXUFSJLGV-UHFFFAOYSA-N,CC(=O)OCCc1ccccc1,CC(=O)OCCc1ccccc1,233.1,0.001760572,1.6498,-9.09,1.86204,276.81223131391755,0.001137506,0.1839,-8.7256,57.25513,0.207,-9.566,1.96037,NaN,NaN,105.7,NaN,105.7,NaN,NaN
NOOFPTCKWDTIGG-UHFFFAOYSA-N,C=CC1Cc2c(N1S(=O)(=O)c1ccc(cc1)C)cccc2,C=CC1Cc2c(N1S(=O)(=O)c1ccc(cc1)C)cccc2,249.2,0.110610593,0.6976,-8.4743,6.02351,318.6435322680639,0.063324644,-0.3105,-8.4775,141.08537,-0.54,-8.437,6.32316,NaN,NaN,NaN,NaN,NaN,NaN,NaN
JZIZWZHMCZSCSN-UHFFFAOYSA-N,O=C1NN=c2c(C1=O)c1c3ccnc3cc3c1c2ccc3,O=C1NN=c2c(C1=O)c1c3ccnc3cc3c1c2ccc3,498.9,0.02956756,-2.5744,-8.5693,5.20157,514.8845448733541,0.131122669,-2.798,-8.4962,119.06587,-2.725,-9.236,3.84837,NaN,NaN,0,NaN,0,NaN,NaN
YXAOOTNFFAQIPZ-UHFFFAOYSA-N,O=Nc1c(O)ccc2c1cccc2,O=Nc1c(O)ccc2c1cccc2,724.3,0.001832461,-1.027,-8.6015,3.67217,880.5695909481794,0.00037656,-2.0753,-8.5798,97.32265,-1.604,-9.262,3.08786,NaN,NaN,500,NaN,500,NaN,NaN
FJQDMIPXUHKIJO-UHFFFAOYSA-N,CCOC(=O)c1ccc(cc1)C=Cc1ccc(cc1)N(c1ccccc1)c1ccccc1,CCOC(=O)c1ccc(cc1)C=Cc1ccc(cc1)N(c1ccccc1)c1ccccc1,341.8,1.549852819,-0.1808,-7.1488,2.95258,340.990644679603,0.844993856,-0.7416,-7.3124,154.64582,-0.878,-8.019,2.87588,354.2304305855245,1.4703803385,296,NaN,296,NaN,NaN
JTGMTYWYUZDRBK-UHFFFAOYSA-N,Cc1c2ccccc2c(c2c1cccc2)C,Cc1c2ccccc2c(c2c1cccc2)C,372.0,0.151722758,-0.0646,-7.2042,0.04831,383.4958193798443,0.192189858,-0.5867,-7.0617,1.34019,-0.9,-7.995,0.04129,NaN,NaN,NaN,NaN,NaN,NaN,NaN
OEIJRRGCTVHYTH-UHFFFAOYSA-N,OC1Cc2ccccc2OC1c1ccccc1,OC1Cc2ccccc2OC1c1ccccc1,247.2,0.039429065,1.5303,-8.442,1.36186,277.9914762455239,0.012121421,0.5678,-8.6365,17.60575,0.07,-9.052,1.54772,NaN,NaN,224,NaN,224,NaN,NaN
ZWNMEMVZGVMCIU-UHFFFAOYSA-N,COC(=O)Cc1cc(=O)oc2c1ccc(c2F)O,COC(=O)Cc1cc(=O)oc2c1ccc(c2F)O,274.2,0.284706965,-0.0869,-8.7032,3.28247,330.2722386934035,0.330837961,-1.5234,-8.9854,91.96088,-1.35,-9.558,3.59904,NaN,NaN,368,NaN,368,NaN,NaN
UFVKXRCBBFGXKO-UHFFFAOYSA-N,CC(=O)C=NNc1ccc(cc1)C,CC(=O)C=NNc1ccc(cc1)C,304.0,7.8347e-05,0.2361,-7.9419,4.13691,367.6874211313869,0.001010889,-0.9976,-8.138,100.08763,-0.576,-8.648,4.41919,NaN,NaN,0,NaN,0,NaN,NaN
KKEYFWRCBNTPAC-UHFFFAOYSA-N,OC(=O)c1ccc(cc1)C(=O)O,OC(=O)c1ccc(cc1)C(=O)O,252.4,0.032084597,-0.3336,-9.9165,3.04760,291.38472010694164,0.078852065,-1.5737,-9.9651,0.55675,-1.492,-10.62,0.00113,NaN,NaN,105,NaN,105,NaN,NaN
ANVTZHIOSTUFIU-UHFFFAOYSA-N,Cc1ccc(cc1)OCc1nnc(o1)c1cc(nn1Cc1ccc(nc1)Cl)c1ccc(cc1)Cl,Cc1ccc(cc1)OCc1nnc(o1)c1cc(nn1Cc1ccc(nc1)Cl)c1ccc(cc1)Cl,254.9,0.689470896,0.2003,-8.4941,6.51255,336.4564407204984,0.272528371,-1.2689,-8.5092,322.08092,-1.296,-9.12,5.74962,NaN,NaN,260,36950,260,36950,DCM
ULIDRMKBVYYVIQ-UHFFFAOYSA-N,Nc1nnnn1c1ccccc1,Nc1nnnn1c1ccccc1,236.7,0.070414253,0.7649,-9.234,6.60387,273.5750185470072,0.016339544,-0.3968,-8.9762,84.28257,-0.925,-9.749,7.45093,NaN,NaN,NaN,NaN,NaN,NaN,NaN
RFTDOJLAHVUHPL-UHFFFAOYSA-N,CCCN1c2ccc(cc2Sc2c1cccc2)C=Cc1cc(=O)oc2c1cc(Cl)c(c2)C,CCCN1c2ccc(cc2Sc2c1cccc2)C=Cc1cc(=O)oc2c1cc(Cl)c(c2)C,348.1,0.536043561,-0.5152,-7.3364,5.74744,344.1137896350365,0.552510688,-1.2653,-7.7081,300.89269,-1.306,-7.792,6.20765,NaN,NaN,432,NaN,432,NaN,chloroform
PWKFGQGXHGEJGC-UHFFFAOYSA-N,CO[Si](CCCSC(=O)c1ccccc1C)(OC)OC,CO[Si](CCCSC(=O)c1ccccc1C)(OC)OC,270.4,0.002415565,0.7195,-8.993,2.00780,317.4198627893079,7.206e-06,0.4259,-8.8057,81.11609,-0.183,-8.793,2.67731,NaN,NaN,280,105500.0,280,105500.0,chloroform
ANBCJARUXPGTHN-UHFFFAOYSA-N,Brc1ccc(cc1)CNc1ccc2c(c1)C(=O)c1c(C2=O)cccc1,Brc1ccc(cc1)CNc1ccc2c(c1)C(=O)c1c(C2=O)cccc1,349.7,0.073999413,-0.8678,-8.2359,2.73641,405.17711897223415,8.571e-06,-1.8257,-8.7075,351.50596,-1.42,-8.864,2.56401,NaN,NaN,307,NaN,307,NaN,NaN
FYXYWLBFSUWNTM-UHFFFAOYSA-N,c1cc2=CC3=NC(=Nc4[nH]c(C=C5N=C(C=c1[nH]2)C=C5)nn4)N=C3,c1cc2=CC3=NC(=Nc4[nH]c(C=C5N=C(C=c1[nH]2)C=C5)nn4)N=C3,582.8,0.022502508,-2.2251,-7.9342,10.68000,553.2538973918057,0.032271038,-2.1922,-7.2994,120.63269,-2.569,-8.963,13.19217,NaN,NaN,622,NaN,622,NaN,NaN
MNRRWIYSUWEEJE-UHFFFAOYSA-N,CC(=O)C(C(c1ccccc1[N+](=O)[O-])O)Cl,CC(=O)C(C(c1ccccc1[N+](=O)[O-])O)Cl,319.2,0.015636308,-0.5203,-9.8117,2.79781,437.02572578605447,0.013130343,-2.7238,-9.7037,49.51500,-1.424,-10.418,2.77046,NaN,NaN,NaN,NaN,NaN,NaN,NaN
NRTCFQZXQQAJOA-UHFFFAOYSA-N,CCCCC1(CCCC)c2cc3c(C#C[Si](C)(C)C)c4ccccc4c(c3cc2c2c1cc(Br)cc2)C#C[Si](C)(C)C,C1(C)c2cc3c(C#C[Si](C)(C)C)c4ccccc4c(c3cc2c2c1cc(Br)cc2)C#C[Si](C)(C)C,419.4,0.509969083,-0.9128,-7.2338,1.57211,438.26157089255446,0.419677745,-0.9812,-6.8363,593.73911,-1.455,-8.013,2.24159,NaN,NaN,457,NaN,457,NaN,dichloromethane
BPGPNFOPHIQMNP-UHFFFAOYSA-N,CCCn1c(N=Nc2ccc3c(c2)scn3)ccc1c1cccs1,CCCn1c(N=Nc2ccc3c(c2)scn3)ccc1c1cccs1,425.1,0.001227997,-0.6333,-7.5297,3.72734,512.1197786266157,0.066956327,-1.1908,-7.2817,86.76385,-1.436,-8.519,4.36683,NaN,NaN,464.0,NaN,366.0,NaN,DMSO
UUIIASHXJLZRHY-UHFFFAOYSA-N,c1ccc(cc1)c1c(sc2c1cc(cc2)c1ccc(cc1)n1c2ccccc2c2c1cccc2)c1ccccc1,c1ccc(cc1)c1c(sc2c1cc(cc2)c1ccc(cc1)n1c2ccccc2c2c1cccc2)c1ccccc1,288.7,0.078438118,0.3971,-7.6032,2.48375,323.97229789784075,0.209600534,-0.1503,-7.6309,150.49359,-0.783,-8.173,1.42009,NaN,NaN,330.0,NaN,244.0,NaN,NaN
GIBHBSRKHBYUKU-UHFFFAOYSA-N,COc1ccc(cc1)C=[N+](c1ccccc1)[O-],COc1ccc(cc1)C=[N+](c1ccccc1)[O-],312.2,0.142957461,0.2363,-7.5239,1.92192,385.7629072977712,0.178533288,-1.0036,-8.0484,32.91222,-0.829,-8.216,2.63621,NaN,NaN,1522.9972586049346,NaN,238.0,NaN,Ethanol
DWMQWXHGHGRSIW-UHFFFAOYSA-N,Fc1ccc(cc1)C(=CC=C(C(=O)C(F)(F)F)C(=O)C(F)(F)F)c1ccc(cc1)F,Fc1ccc(cc1)C(=CC=C(C(=O)C(F)(F)F)C(=O)C(F)(F)F)c1ccc(cc1)F,339.5,0.423535714,-1.2844,-8.7605,4.19661,410.81576675117185,0.200289071,-2.138,-8.7943,273.69200,-1.977,-9.897,4.8868,NaN,NaN,389,NaN,389,NaN,NaN
YTZIBATXSPTYFS-UHFFFAOYSA-N,Fc1cc(ccc1c1ccc(cc1)c1[nH]c2c(n1)cccc2)c1ccc(cc1)c1[nH]c2c(n1)cccc2,Fc1cc(ccc1c1ccc(cc1)c1[nH]c2c(n1)cccc2)c1ccc(cc1)c1[nH]c2c(n1)cccc2,304.7,2.659282146,-0.1807,-7.8856,1.26260,346.9059832274865,1.189855304,-0.6785,-7.7102,49.27627,-1.077,-8.895,1.33933,314.3376340776296,2.845239471,343,NaN,343,NaN,NaN
VULQAKDQMBGYQC-UHFFFAOYSA-N,Cn1c(c2ccccc2)c(c2c1cccc2)N=Nc1sc2c(n1)ccc(c2)[N+](=O)[O-],Cn1c(c2ccccc2)c(c2c1cccc2)N=Nc1sc2c(n1)ccc(c2)[N+](=O)[O-],480.6,0.001199036,-1.1454,-7.9249,9.86269,529.6206681140694,0.033741069,-2.2576,-7.9722,327.97402,-1.625,-8.793,11.06574,NaN,NaN,566.0,NaN,454.0,NaN,Chloroform
WKJXXHUWIYDRSU-UHFFFAOYSA-N,CCN1C(=O)C(=CC=CC=CC=c2sc3c(n2CC)cccc3)C(=O)N(C1=S)CC,CCN1C(=O)C(=CC=CC=CC=c2sc3c(n2CC)cccc3)C(=O)N(C1=S)CC,424.8,3.085626183,-1.1769,-7.0228,13.52914,474.48985229813877,1.416589089,-1.9583,-7.5589,222.26920,-1.803,-8.123,12.09741,479.81498842584926,2.3949219379,708.0,NaN,610.0,NaN,DCM
IMMCAKJISYGPDQ-UHFFFAOYSA-N,Clc1cccc2c1c(C#Cc1ccccc1)c1c(c2C#Cc2ccccc2)cccc1,Clc1cccc2c1c(C#Cc1ccccc1)c1c(c2C#Cc2ccccc2)cccc1,448.3,1.128073821,-1.0468,-7.0798,1.70198,468.39515831319864,0.778324753,-1.2407,-6.9083,148.51900,-1.741,-8.142,1.67551,465.91331783562987,0.844244298,525.0,NaN,493.0,NaN,NaN
RCNMJYHKKLTKEU-UHFFFAOYSA-N,Brc1ccc2c(c1)C(C)(C)c1c2cc2c(c1)c(C#Cc1ccccc1)c1c(c2C#Cc2ccccc2)cccc1,Brc1ccc2c(c1)C(C)(C)c1c2cc2c(c1)c(C#Cc1ccccc1)c1c(c2C#Cc2ccccc2)cccc1,443.7,1.052073912,-1.0081,-7.0191,1.66772,481.1183484885668,0.839793965,-1.2624,-6.7735,611.67569,-1.758,-8.052,2.03341,NaN,NaN,479,NaN,479,NaN,dichloromethane
RKONQSLQZWTTCD-UHFFFAOYSA-N,Oc1ccc2c(c1c1nc(c3n1cccc3)c1ccccc1)cccc2,Oc1ccc2c(c1c1nc(c3n1cccc3)c1ccccc1)cccc2,344.7,0.187789734,0.3334,-7.1761,3.39147,421.7149605629376,0.182300561,-0.5154,-6.7942,49.64589,-0.877,-8.124,3.91787,NaN,NaN,467.0,11578,279.0,10495,acetonitrile
FNTXOILWZRIZJS-UHFFFAOYSA-N,c1ccc2c(c1)n(c1ccc(cc1)C=Cc1ccc(cc1)c1ccc(cc1)C=Cc1ccc(cc1)n1c3ccccc3c3c1cccc3)c1c2cccc1,c1ccc2c(c1)n(c1ccc(cc1)C=Cc1ccc(cc1)c1ccc(cc1)C=Cc1ccc(cc1)n1c3ccccc3c3c1cccc3)c1c2cccc1,345.2,3.338521788,-0.3923,-7.4342,0.08813,331.5085518863734,2.095411727,-0.2283,-7.4565,2.37839,-0.745,-8.199,0.14129,354.4228260512248,3.4379501868,375.0,NaN,369.0,NaN,NaN
ARTRJRQBCUTKOS-UHFFFAOYSA-N,O=C(NCC(=O)NC(CCc1ccccc1)C)CCCCCCCc1ccccc1,O=C(NCC(=O)NC(CCc1ccccc1)C)Cc1ccccc1,235.5,0.001430483,1.2762,-8.7449,2.78559,284.3022206042276,0.014457285,-0.1478,-8.4429,97.39986,-0.178,-9.196,3.44927,NaN,NaN,NaN,NaN,NaN,NaN,NaN
ZFQAASLRTXVNQH-UHFFFAOYSA-N,CCOC(=O)c1cc2c(n1Cc1ccccc1)c1nc(N)ncc1CCC2,CCOC(=O)c1cc2c(n1Cc1ccccc1)c1nc(N)ncc1CCC2,282.6,0.495860874,0.4169,-8.0439,1.46074,370.7661435571282,0.472662538,-0.897,-7.952,74.95264,-0.58,-8.815,0.87178,NaN,NaN,NaN,NaN,NaN,NaN,NaN
IQFAJUXMIDOUIT-UHFFFAOYSA-N,CC(=O)C(=NNc1snc2c1cc(cc2)[N+](=O)[O-])C(=O)C,CC(=O)C(=NNc1snc2c1cc(cc2)[N+](=O)[O-])C(=O)C,378.7,0.578659285,-1.6389,-8.5372,3.39642,501.14874052345857,0.319625704,-2.7857,-8.524,63.26276,-2.366,-9.146,4.96511,NaN,NaN,455,NaN,455,NaN,NaN
CRNNFEKVPRFZKJ-UHFFFAOYSA-N,ON=C1c2ccccc2c2c1cccc2,ON=C1c2ccccc2c2c1cccc2,321.2,0.021372484,-0.0047,-8.3024,0.36023,369.88126015961717,0.033199266,-0.9143,-8.1639,68.05580,-0.993,-9.112,0.82733,NaN,NaN,318.0,23400,305.0,15000,DMF
ZKBGGIVOHHMHFA-UHFFFAOYSA-N,CN(c1ccc(cc1)c1[nH]c(nc1c1ccc(cc1)N(C)C)c1ccc(cc1)[N+](=O)[O-])C,CN(c1ccc(cc1)c1[nH]c(nc1c1ccc(cc1)N(C)C)c1ccc(cc1)[N+](=O)[O-])C,336.7,1.134718706,-0.5024,-6.7945,10.36068,515.741257926388,0.503184789,-2.4837,-7.14,342.71124,-1.406,-7.917,10.60849,375.9375167047891,0.8013408638,457,NaN,457,NaN,CH 2 Cl 2
VIGCQTBKIXJJHG-UHFFFAOYSA-N,c1ccc(cc1)N(c1ccccc1)c1ccc(cc1)C=Cc1ccc(c2c1nsn2)C=Cc1ccc(cc1)N(c1ccccc1)c1ccccc1,c1ccc(cc1)N(c1ccccc1)c1ccc(cc1)C=Cc1ccc(c2c1nsn2)C=Cc1ccc(cc1)N(c1ccccc1)c1ccccc1,446.9,1.863005082,-0.8919,-6.8357,1.79730,517.8955656036076,0.564053299,-1.7908,-7.1198,174.41486,-1.719,-7.867,1.16884,485.05220065427585,1.6110636299,391.0,41000.0,376.0,33000.0,DMF
OIRDTQYFTABQOQ-KQYNXXCUSA-N,OC[C@H]1O[C@H]([C@@H]([C@@H]1O)O)n1cnc2c1ncnc2N,OC[C@H]1O[C@H]([C@@H]([C@@H]1O)O)n1cnc2c1ncnc2N,241.7,0.232420383,0.9814,-8.6616,2.32304,302.99168720797576,0.191435181,-0.2285,-8.285,24.99234,-0.701,-9.244,2.23081,NaN,NaN,0,NaN,0,NaN,NaN
NFZJAYYORNVZNI-UHFFFAOYSA-N,COC(=O)C12Oc3ccc(c(c3C(=C2C(=O)CC(C1O)C)O)O)c1ccc2c(c1O)C(=C1C(O2)(C(=O)OC)C(O)C(CC1=O)C)O,COC(=O)C12Oc3ccc(c(c3C(=C2C(=O)CC(C1O)C)O)O)c1ccc2c(c1O)C(=C1C(O2)(C(=O)OC)C(O)C(CC1=O)C)O,310.6,0.115883199,-0.3152,-8.1348,2.48572,376.3940449468842,0.60871064,-1.3872,-8.2212,27.30943,-1.194,-8.864,1.6746,NaN,NaN,NaN,NaN,NaN,NaN,NaN
BDTIGNGBIBFXSE-UHFFFAOYSA-N,N#CC(=Cc1ccc(cc1)[N+](=O)[O-])C#N,N#CC(=Cc1ccc(cc1)[N+](=O)[O-])C#N,322.3,1.83e-07,-2.0651,-10.0957,3.09046,424.0225663662916,6.5193e-05,-2.8256,-10.0052,55.07698,-2.212,-11.032,3.76673,NaN,NaN,310.0,NaN,220.0,NaN,Methanol
UJESVODQMPJPSB-UHFFFAOYSA-N,Cc1cc(C)cc(c1)C(=O)On1c(=O)c2cccc3c2c(c1=S)ccc3,Cc1cc(C)cc(c1)C(=O)On1c(=O)c2cccc3c2c(c1=S)ccc3,405.7,0.000649735,-1.224,-8.557,2.84126,546.908682865036,0.000119219,-1.8368,-8.5445,78.78967,-1.905,-8.682,2.71524,NaN,NaN,435.4,NaN,398.5,NaN,NaN