inchikey,smi_pre,smi_post,lambda_sTDA (nm),f1_sTDA,lumo_dft,homo_dft,dmom_dft (D),lambda_z (nm),f1_z,lumo_z,homo_z,dmom_z (D),lumo_mopac,homo_mopac,dmom_mopac (D),lambda_tddft (nm),f1_tddft,lambda_exp_max (nm),epsilon_exp_max ,lambda_exp_min (nm),epsilon_exp_min ,solvent
ZELDKFMKOMJOEU-GDBMZVCRSA-N,O=C1C=CC=C2[C@@]31CCN[C@@H]2Cc1c3cccc1,O=C1C=CC=C2[C@@]31CCN[C@@H]2Cc1c3cccc1,335.1,0.00404615,-0.0548,-8.5306,3.03651,359.06226007965154,0.000885118,-0.6623,-8.5811,41.39929,-0.765,-9.257,2.70005,NaN,NaN,NaN,NaN,NaN,NaN,NaN
LUOZEWPJSYBORW-UHFFFAOYSA-N,Cc1ccc2c(c1O)nccc2,Cc1ccc2c(c1O)nccc2,311.5,0.04766396,0.3176,-7.9444,2.17445,320.7870592639163,0.042525332,-0.5003,-8.069,40.31475,-0.784,-8.695,2.11133,NaN,NaN,415.0,NaN,306.0,NaN,MeOH
CGLQDOWBKLVUAX-UHFFFAOYSA-N,N#Cc1ccc(cc1)c1nc2CCc3c(c2c2c1c1ccc(cc1CC2)Br)ccc(c3)Br,N#Cc1ccc(cc1)c1nc2CCc3c(c2c2c1c1ccc(cc1CC2)Br)ccc(c3)Br,298.8,0.569306685,-0.4041,-8.3053,5.75675,338.75464045219576,0.448701609,-0.8151,-8.0195,341.94451,-1.324,-9.102,5.08634,NaN,NaN,399.0,99100.0,293.0,3200.0,chloroform
XSBZORGHPBQXGA-UHFFFAOYSA-N,O=S(=O)(c1cccc(c1)N1N=C(CC1c1ccccc1)c1ccco1)c1cccc(c1)N1N=C(CC1c1ccccc1)c1ccco1,O=S(=O)(c1cccc(c1)N1N=C(CC1c1ccccc1)c1ccco1)c1cccc(c1)N1N=C(CC1c1ccccc1)c1ccco1,319.9,0.991600127,0.3718,-7.2588,8.36746,363.1640257923364,0.639451669,-0.8101,-7.8359,167.58711,-0.694,-8.273,4.07629,335.9823126368204,1.4399253896,348.0,43099.99999999999,344.0,43099.99999999999,dichloromethane
QAHXABIFJPGWDD-WKAQUBQDSA-N,O=C(OC(C)(C)C)N[C@H]([C@H](C[C@H](C(=O)N[C@H](c1ncc[nH]1)C(C)C)Cc1ccccc1)O)Cc1ccccc1,O=C(OC(C)(C)C)N[C@H]([C@H](C[C@H](C(=O)N[C@H](c1ncc[nH]1)C(C)C)Cc1ccccc1)O)Cc1ccccc1,232.8,0.006301589,1.7812,-8.7561,5.08721,286.53616456090515,0.003103979,0.3983,-8.0458,65.78994,-0.059,-9.059,4.61783,NaN,NaN,NaN,NaN,NaN,NaN,NaN
NRJPVIOTANUINF-UHFFFAOYSA-N,Oc1ccc(cc1)N=Nc1ccc(cc1)[N+](=O)[O-],Oc1ccc(cc1)N=Nc1ccc(cc1)[N+](=O)[O-],443.5,0.00055435,-1.1893,-8.5547,6.65738,519.6320134346339,0.011176609,-2.4935,-8.841,100.85585,-1.735,-9.483,6.87673,NaN,NaN,387.0,NaN,381.0,NaN,NaN
ZFLWYSBTENCHRV-UHFFFAOYSA-N,O=c1[nH]c2c(cc1S(=O)(=O)c1ccccc1)CCc1c2[nH]cc1,O=c1[nH]c2c(cc1S(=O)(=O)c1ccccc1)CCc1c2[nH]cc1,338.2,0.730409257,-0.2679,-7.8638,9.07953,441.53916811076806,0.520215631,-1.4858,-7.9357,147.50400,-1.195,-8.862,8.77967,NaN,NaN,430,37138,430,37138,NaN
QXKHYNVANLEOEG-UHFFFAOYSA-N,COc1c2oc(=O)ccc2cc2c1occ2,COc1c2oc(=O)ccc2cc2c1occ2,300.8,0.05683266,0.1448,-8.1079,6.25090,346.3245765516862,0.089682383,-1.0688,-8.4054,67.90329,-1.143,-8.723,5.49604,NaN,NaN,NaN,NaN,NaN,NaN,NaN
YFMWHWAXXCTMSN-UHFFFAOYSA-N,Cc1cc(N)cc(c1B(c1c(C)cc(cc1C)N)c1c(C)cc(cc1C)N)C,Cc1cc(N)cc(c1B(c1c(C)cc(cc1C)N)c1c(C)cc(cc1C)N)C,293.1,0.283779305,0.6704,-7.3639,1.24273,314.0430557383578,0.136320103,0.1232,-7.6263,1.90081,-0.716,-7.993,1.48425,NaN,NaN,NaN,NaN,NaN,NaN,NaN
QOIKGLOLFNFXDW-UHFFFAOYSA-N,CCCCCc1ccc(cc1)C#Cc1c(oc(=O)c2c1ccs2)c1ccc(cc1)CCCCC,Cc1ccc(cc1)C#Cc1c(oc(=O)c2c1ccs2)c1ccc(cc1)C,317.5,0.455274545,-0.1037,-7.6853,5.99866,416.89374043545274,0.149217332,-1.2173,-7.5524,320.62811,-1.225,-8.385,4.93557,NaN,NaN,NaN,NaN,NaN,NaN,NaN
MYNUZVPSTJRATI-UHFFFAOYSA-N,CCn1c2nc(nc(=O)c2[n+](c2c1ccc(c2)C)[O-])c1ccccc1,CCn1c2nc(nc(=O)c2[n+](c2c1ccc(c2)C)[O-])c1ccccc1,464.3,0.000109559,-1.3393,-8.5629,10.28337,536.2638339338394,0.00015963,-2.4449,-8.7391,125.94522,-1.692,-9.143,10.4142,NaN,NaN,510.0,30902.95432513592,294.0,19498.445997580457,NaN
HGXWJHWDCNQNAD-UHFFFAOYSA-N,O=C1OC(=NC1=CC=Cc1ccc(cc1)N(C)C)c1ccccc1,O=C1OC(=NC1=CC=Cc1ccc(cc1)N(C)C)c1ccccc1,377.3,2.023180598,-0.7148,-7.0894,7.49705,397.512659203282,1.2587036,-1.2647,-7.4834,178.53050,-1.441,-8.154,5.72896,409.44550381176134,1.6262161989,488.0,47400.0,488.0,47400.0,THF
XJCVRTZCHMZPBD-UHFFFAOYSA-N,Nc1cccc(c1)[N+](=O)[O-],Nc1cccc(c1)[N+](=O)[O-],317.7,3.0202e-05,-0.308,-8.5556,5.59344,424.60341919693036,0.00052741,-2.4464,-8.9249,75.84908,-1.16,-9.119,6.18834,NaN,NaN,373.9,NaN,361.8,NaN,NaN
JOAQINSXLLMRCV-UHFFFAOYSA-N,OC(=O)c1ccc(cc1)NCc1cnc2c(n1)c(=O)nc([nH]2)N,OC(=O)c1ccc(cc1)NCc1cnc2c(n1)c(=O)nc([nH]2)N,314.6,0.006212733,-0.4891,-7.7657,11.89401,364.55218584388024,0.00447847,-1.2956,-8.4069,44.20775,-1.531,-8.906,8.84058,NaN,NaN,299,NaN,299,NaN,NaN
XKXNZVNWMBKQQT-UHFFFAOYSA-N,Oc1ccc(cc1)C=Nc1ccc2c(c1)ccc(=O)o2,Oc1ccc(cc1)C=Nc1ccc2c(c1)ccc(=O)o2,295.9,0.168030123,-0.019,-8.1348,6.65368,345.6487270853182,0.086070046,-0.997,-8.4177,69.25132,-1.2,-9.075,5.40633,NaN,NaN,321,21000.0,321,21000.0,NaN
CKTSBUTUHBMZGZ-CHKWXVPMSA-N,OC[C@@H]1O[C@@H](C[C@H]1O)n1ccc(nc1=O)N,OC[C@@H]1O[C@@H](C[C@H]1O)n1ccc(nc1=O)N,252.0,0.124863813,0.9079,-8.7969,6.28637,299.3341342479567,0.149396554,-0.7185,-9.2163,30.46965,-0.46,-9.598,5.77685,NaN,NaN,NaN,NaN,NaN,NaN,NaN
JBPJOFZLROROLW-UHFFFAOYSA-N,COc1ccc(cc1)C1(C)c2cc(ccc2c2c1cc(cc2)C#C[Si](C)(C)C)C#C[Si](C)(C)C,COc1ccc(cc1)C1(C)c2cc(ccc2c2c1cc(cc2)C#C[Si](C)(C)C)C#C[Si](C)(C)C,305.3,1.368342317,-0.0142,-7.7519,1.23357,346.1312071622101,0.835272107,-0.2296,-7.2959,27.84346,-0.717,-8.443,0.88279,311.0257457021284,1.3491379928,363.0,NaN,344.0,NaN,NaN
HBJYMKAJBFTNLC-UHFFFAOYSA-N,Clc1ccc(cc1)c1ccc2c(n1)nc1c(c2)cccc1,Clc1ccc(cc1)c1ccc2c(n1)nc1c(c2)cccc1,341.1,0.095634845,-0.866,-8.3007,4.71601,365.30406130083577,0.474459014,-1.3303,-8.1621,236.07686,-1.69,-9.18,5.76203,NaN,NaN,392,NaN,392,NaN,acetone
BDLMBQRBNPDCSS-UHFFFAOYSA-N,Clc1ccc(cc1)NC(=O)Cn1c(cc2c1cccc2)C(=O)NC1CCN(CC1)C(C)C,Clc1ccc(cc1)NC(=O)Cn1c(cc2c1cccc2)C(=O)NC1CCN(CC1)C(C)C,276.8,0.193109817,0.4646,-8.0671,8.03411,331.0659503484744,0.393630368,-0.912,-8.3456,376.39741,-0.72,-8.736,7.14505,NaN,NaN,499.0,75300,437.0,49500,NaN
KLNWLOCDPWWNDS-UHFFFAOYSA-N,CN(c1ccc(cc1)c1ccc2c(n1)cccc2)C,CN(c1ccc(cc1)c1ccc2c(n1)cccc2)C,303.8,0.500182614,0.3679,-7.2042,2.73488,332.13018592419945,0.40268363,-0.4317,-7.6838,29.54801,-0.687,-8.122,2.16018,NaN,NaN,0,NaN,0,NaN,NaN
MAELBIXSJOXFIS-UHFFFAOYSA-N,Cn1cc(n(c1=S)C)P(=O)(c1ccccc1)c1ccccc1,Cn1cc(n(c1=S)C)P(=O)(c1ccccc1)c1ccccc1,249.3,0.167870231,0.5515,-7.524,6.97516,376.9662462921972,6.7006e-05,-0.0824,-8.0971,154.47797,-0.496,-7.76,8.20168,NaN,NaN,272,NaN,272,NaN,NaN
BCVKWTYISCKXDU-UHFFFAOYSA-N,N#Cc1c(C#N)nc(n1C)C=Cc1ccccc1,N#Cc1c(C#N)nc(n1C)C=Cc1ccccc1,296.4,1.342492948,-0.6065,-8.5149,9.31264,349.9412881893978,0.721920636,-1.1849,-8.2645,148.17788,-1.354,-9.467,8.85872,307.370882835212,1.1148494683,313,NaN,313,NaN,NaN
NYAFDTKXSRBWAJ-UHFFFAOYSA-N,O1CCN(CC1)c1cc2OC(C=Cc2c2c1cccc2)(c1ccccc1)c1ccccc1,O1CCN(CC1)c1cc2OC(C=Cc2c2c1cccc2)(c1ccccc1)c1ccccc1,333.7,0.309188838,0.4154,-7.3764,0.94979,356.891762825284,0.286285605,-0.3388,-7.3264,55.85432,-0.728,-8.296,1.08368,NaN,NaN,420,NaN,420,NaN,NaN
FJPJBPJRHPSDJX-UHFFFAOYSA-N,NC(=O)c1c(=O)oc2c(c1C)cc1c(c2)n(c(n1)Nc1cccc2c1cccc2)CCN1CCOCC1,NC(=O)c1c(=O)oc2c(c1C)cc1c(c2)n(c(n1)Nc1cccc2c1cccc2)CCN1CCOCC1,309.6,0.542658262,-0.1288,-7.9299,7.56431,373.1092338414194,0.376399039,-1.2895,-8.1548,230.62966,-1.454,-9.003,6.66387,NaN,NaN,349,NaN,349,NaN,ethanol
WXNZTHHGJRFXKQ-UHFFFAOYSA-N,Oc1ccc(cc1)Cl,Oc1ccc(cc1)Cl,249.3,0.040810535,1.3296,-8.4706,2.35484,274.7876737710631,0.014542787,0.1331,-9.1205,59.20521,-0.411,-9.336,2.30992,NaN,NaN,280.0,NaN,280.0,NaN,NaN
FBKSYIUJSVXDRQ-UHFFFAOYSA-N,CO[Si](CCCSC(=O)c1cccs1)(OC)OC,CO[Si](CCCSC(=O)c1cccs1)(OC)OC,277.4,0.000904006,0.2169,-8.8942,2.64284,328.8705527997445,0.00032004,-0.5044,-8.652,101.25063,-0.822,-8.753,2.85888,NaN,NaN,287,95800.0,287,95800.0,chloroform
ADNVGVLTEHCXMS-UHFFFAOYSA-N,ClCC=C(c1ccc(cc1)Cl)c1ccc(cc1)Cl,ClCC=C(c1ccc(cc1)Cl)c1ccc(cc1)Cl,252.8,0.310221751,0.3114,-8.6101,1.38116,277.74237994064435,0.017416495,-0.3584,-8.7879,75.86860,-0.748,-9.608,2.81407,NaN,NaN,NaN,NaN,NaN,NaN,NaN
DFXWXWADMUKRTA-UHFFFAOYSA-N,N#CC(=Cc1ccc2c(c1)C(CC)(CC)c1c2ccc(c1)N(c1ccccc1)c1ccccc1)C#N,N#CC(=Cc1ccc2c(c1)C(CC)(CC)c1c2ccc(c1)N(c1ccccc1)c1ccccc1)C#N,366.2,1.532088827,-1.1621,-7.3973,8.83450,379.7372079801031,0.737282367,-1.2228,-7.3108,165.37770,-1.589,-8.061,6.01761,390.59981415550203,1.2343095269,518.6,NaN,309.0,NaN,ACN
CAGHBXQSDLNCES-ZRTHHSRSSA-N,O[C@@H]1[C@@H](O)[C@@H](COc2ccccc2)N(S(=O)(=O)N([C@@H]1COc1ccccc1)Cc1ccccc1)Cc1ccccc1,O[C@@H]1[C@@H](O)[C@@H](COc2ccccc2)N(S(=O)(=O)N([C@@H]1COc1ccccc1)Cc1ccccc1)Cc1ccccc1,245.9,0.036261047,1.3677,-8.4131,4.32650,312.0669479121663,0.017483409,-0.3371,-8.4986,164.60120,-0.329,-8.971,1.49474,NaN,NaN,630,NaN,630,NaN,NaN
YZAMKZXVKVLZBJ-UHFFFAOYSA-N,Cc1sc(c(c1)C1=C(CCC1=O)c1ccccc1)C,Cc1sc(c(c1)C1=C(CCC1=O)c1ccccc1)C,309.0,0.038880195,0.1268,-7.9873,3.85950,363.6966805676259,0.047037878,-0.5949,-7.6504,99.05402,-0.659,-8.549,3.69083,NaN,NaN,280,NaN,280,NaN,NaN
FLFWJIBUZQARMD-UHFFFAOYSA-N,S=c1oc2c([nH]1)cccc2,S=c1oc2c([nH]1)cccc2,268.8,8.2644e-05,0.693,-8.2054,5.25278,407.1730653711122,4.943e-06,-0.6101,-8.7043,121.34639,-1.03,-8.704,5.29647,NaN,NaN,299.0,5400,299.0,5400,NaN
HVQAJTFOCKOKIN-UHFFFAOYSA-N,O=c1c(O)c(oc2c1cccc2)c1ccccc1,O=c1c(O)c(oc2c1cccc2)c1ccccc1,300.1,0.484573922,-0.2155,-8.2153,3.10711,360.10513623439925,0.003570664,-1.1004,-8.456,67.09073,-1.048,-8.928,2.69418,NaN,NaN,344,NaN,344,NaN,NaN
QFMZQPDHXULLKC-UHFFFAOYSA-N,c1ccc(cc1)P(c1ccccc1)CCP(c1ccccc1)c1ccccc1,c1ccc(cc1)P(c1ccccc1)CCP(c1ccccc1)c1ccccc1,243.6,0.127724506,1.0692,-8.2269,2.14956,276.5652429299658,0.004650945,0.4846,-8.2467,69.83922,-0.456,-8.413,3.37948,NaN,NaN,447,NaN,447,NaN,dichloromethane
AAVIVMQEBOUDDS-UHFFFAOYSA-N,CC(=O)Nc1ccc(cc1)N=Nc1sc2c(n1)ccc(c2)[N+](=O)[O-],CC(=O)Nc1ccc(cc1)N=Nc1sc2c(n1)ccc(c2)[N+](=O)[O-],471.5,0.015017771,-1.4531,-8.5553,9.20655,520.9420101071582,0.009412618,-2.3611,-8.7209,239.61966,-1.898,-9.308,10.23003,NaN,NaN,419.0,NaN,401.0,NaN,Methanol
SHFCTZCTDQXSDF-UHFFFAOYSA-N,N#CC(=Cc1ccc(cc1)C)c1ccc(cc1)N(c1ccccc1)c1ccccc1,N#CC(=Cc1ccc(cc1)C)c1ccc(cc1)N(c1ccccc1)c1ccccc1,320.3,0.56088203,-0.1177,-7.3719,5.83700,341.36618503717966,0.309773612,-0.4258,-7.3322,85.68954,-0.788,-8.066,5.1242,NaN,NaN,398.0,NaN,299.0,NaN,THF
PXNZOSNGXGPWBH-UHFFFAOYSA-N,Oc1ccc(c2c1nccc2)N=Nc1cccnc1,Oc1ccc(c2c1nccc2)N=Nc1cccnc1,450.2,0.004757813,-0.8215,-7.991,0.48502,525.1342583884102,0.01288169,-1.4318,-7.9772,42.49804,-1.623,-8.856,3.79638,NaN,NaN,538,NaN,538,NaN,DMSO
TUPNMTVOKKNUKA-UHFFFAOYSA-N,c1ccc(cc1)C1=CC(=CC=Cc2ccncn2)C=C(O1)c1ccccc1,c1ccc(cc1)C1=CC(=CC=Cc2ccncn2)C=C(O1)c1ccccc1,364.6,1.935477027,-0.4393,-6.9974,5.15806,414.1088791098986,1.419326261,-1.0056,-7.0806,82.03737,-1.153,-8.111,5.89106,399.3564163152723,1.5587617055,444.0,NaN,253.0,NaN,dichloromethane
HJXDKUIIHHMOIO-UHFFFAOYSA-N,CC1(C)c2ccccc2c2c1cc1c(c2)c(C#Cc2ccccc2)c2c(c1C#Cc1ccccc1)cccc2,CC1(C)c2ccccc2c2c1cc1c(c2)c(C#Cc2ccccc2)c2c(c1C#Cc1ccccc1)cccc2,429.2,0.875559162,-0.7932,-7.0229,0.82977,443.59283866012044,0.526499456,-0.9264,-6.7609,49.21280,-1.488,-8.062,0.76374,422.2175821870916,0.4186396674,478,NaN,478,NaN,dichloromethane
KYSOIKVITBYFIH-UHFFFAOYSA-N,CCN(c1ccc(c(c1)O)c1[nH]c2c(n1)ccc(c2)n1nc2c(n1)c1c(cc2)cccc1S(=O)(=O)O)CC,CCN(c1ccc(c(c1)O)c1[nH]c2c(n1)ccc(c2)n1nc2c(n1)c1c(cc2)cccc1S(=O)(=O)O)CC,328.6,1.680091791,-0.4442,-7.3508,1.46399,426.79586370225013,1.081917041,-1.409,-7.3627,354.69192,-1.384,-8.316,2.33063,345.72581844079934,1.5576148663,503.0,NaN,378.0,NaN,DMSO
RJSRSRITMWVIQT-UHFFFAOYSA-N,Nc1ccc2c(c1)cccn2,Nc1ccc2c(c1)cccn2,304.0,0.089372701,0.5286,-7.7899,3.25667,335.6367038589704,0.146145458,-0.3629,-7.8394,9.58358,-0.679,-8.417,3.46087,NaN,NaN,361,7350.0,361,7350.0,DMSO
YWYLUCFMHOGELD-UHFFFAOYSA-N,ClCc1cc(=O)oc2c1cc1nc(oc1c2)c1ccc(c(c1)N)C,ClCc1cc(=O)oc2c1cc1nc(oc1c2)c1ccc(c(c1)N)C,302.2,0.837221272,-0.353,-8.0348,5.68795,358.85440927786874,0.553568387,-1.1587,-8.087,264.97166,-1.528,-8.713,6.02755,316.7305990783994,0.6844890626,342,2884.031503126606,342,2884.031503126606,NaN
HVVMQVMZWHOVNS-UHFFFAOYSA-N,O=Cc1c(C)c2C=CC3(Oc2c2c1oc(=O)cc2C)N(C)c1c(C3(C)C)cc(cc1)Cl,O=Cc1c(C)c2C=CC3(Oc2c2c1oc(=O)cc2C)N(C)c1c(C3(C)C)cc(cc1)Cl,312.5,3.2367e-05,-0.2123,-8.1482,7.50130,377.0808953938676,6.2017e-05,-1.372,-8.5502,150.98701,-1.077,-8.87,5.94087,NaN,NaN,NaN,NaN,NaN,NaN,NaN
SFKORWAFRFUCJY-UHFFFAOYSA-N,CC(c1oc(=O)c2c(c1C#CC(O)C)ccs2)O,CC(c1oc(=O)c2c(c1C#CC(O)C)ccs2)O,278.7,0.169147885,0.039,-8.4354,3.71041,376.9662462921972,0.10647237,-1.3159,-8.3377,150.61452,-1.366,-8.813,2.09876,NaN,NaN,NaN,NaN,NaN,NaN,NaN
LTHVYQSOCBIORM-UHFFFAOYSA-N,S=c1sc(c(n1O)C)C,S=c1sc(c(n1O)C)C,269.4,0.000854125,0.9348,-7.7955,5.41810,425.62375010471567,8.6529e-05,-0.7144,-8.5531,120.38109,-1.086,-8.197,5.70063,NaN,NaN,321.0,NaN,316.0,NaN,NaN
DHGDSDRJZFCPLH-UHFFFAOYSA-N,Clc1ccc(cc1)N=Nc1c(N)nn2c1nc(N)c(c2N)N=Nc1ccc(cc1)[N+](=O)[O-],Clc1ccc(cc1)N=Nc1c(N)nn2c1nc(N)c(c2N)N=Nc1ccc(cc1)[N+](=O)[O-],396.1,0.076547059,-1.355,-7.6718,3.37998,506.6783751757403,0.04985025,-2.6025,-7.8023,68.51049,-1.952,-8.672,3.3174,NaN,NaN,489,NaN,489,NaN,NaN
XUWSVEMVWHLIKJ-UHFFFAOYSA-N,CCOC(=O)c1cc2c(n1Cc1ccc(cc1)OC)c1nc(N)ncc1CCC2,CCOC(=O)c1cc2c(n1Cc1ccc(cc1)OC)c1nc(N)ncc1CCC2,282.9,0.493621465,0.435,-8.0151,1.50877,370.6553016606985,0.468228551,-0.8985,-7.9593,63.42961,-0.548,-8.781,1.36239,NaN,NaN,NaN,NaN,NaN,NaN,NaN
PSXJSTGAFIASTP-UHFFFAOYSA-N,NS(=O)(=O)c1ccc(cc1N1CCOCCOCCOCCOCC1)n1cccc1,NS(=O)(=O)c1ccc(cc1N1CCOCCOCCOCCOCC1)n1cccc1,256.4,0.083497192,0.7597,-8.4257,5.86631,292.4845444810183,0.056305185,-0.4092,-8.4233,177.18443,-0.874,-9.084,5.83326,NaN,NaN,278.0,NaN,277.0,NaN,ACN
CVTOCKKPVXJIJK-UHFFFAOYSA-N,O=C1C(=Cc2ccccc2)CCC1=Cc1ccccc1,O=C1C(=Cc2ccccc2)CCC1=Cc1ccccc1,358.3,0.000202925,-0.6373,-8.3384,3.45346,379.15657004741183,0.002316503,-0.6851,-8.6677,51.56245,-0.66,-9.566,3.31698,NaN,NaN,147.2,NaN,147.2,NaN,NaN
BZNMVZHCGOYMFW-UHFFFAOYSA-N,COc1c2ccccc2c(c2c1c1ccc(cc1n2C)F)OC,COc1c2ccccc2c(c2c1c1ccc(cc1n2C)F)OC,338.3,0.106032607,0.3598,-7.1848,2.87153,364.55218584388024,0.089775287,-0.461,-7.3317,100.83286,-0.89,-7.968,2.24427,NaN,NaN,321.0,NaN,232.0,NaN,CH 2 Cl
WDFVDCHGVMFVRG-UHFFFAOYSA-N,COc1ccccc1c1nc(c2n1cccc2)c1ccccc1,COc1ccccc1c1nc(c2n1cccc2)c1ccccc1,339.6,0.206557152,0.7159,-7.1296,2.35886,415.77531323106524,0.225697514,-0.1186,-6.7088,36.90390,-0.412,-7.955,4.90202,NaN,NaN,481.0,7953,291.0,23664,HCl
CYMZGBHTMRBKGS-UHFFFAOYSA-N,CCOC(=O)C1C(=O)C=C(CC1c1ccccc1OC)c1ccco1,CCOC(=O)C1C(=O)C=C(CC1c1ccccc1OC)c1ccco1,306.7,0.002550252,-0.0081,-8.3927,6.37194,369.5505168569409,0.001563983,-1.063,-8.2665,107.02776,-0.891,-9.184,5.62785,NaN,NaN,331.0,NaN,331.0,NaN,NaN
MLAWIMYUNNARQL-UHFFFAOYSA-N,Clc1ccc(cc1)c1cc(n(n1)Cc1ccc(cc1)C(C)(C)C)c1nnc(o1)c1ccc(cc1)C,Clc1ccc(cc1)c1cc(n(n1)Cc1ccc(cc1)C(C)(C)C)c1nnc(o1)c1ccc(cc1)C,277.7,1.206159149,0.1262,-8.2176,4.54364,370.6553016606985,0.654154112,-1.1167,-8.0771,379.57159,-1.155,-8.987,4.96971,279.7856050215269,0.9966539364,275,NaN,275,NaN,dichloromethane
RFEJMKDVVUJCAF-UHFFFAOYSA-N,N#CC(=Cc1ccc(cc1)N(C)C)c1ccc(cc1)F,N#CC(=Cc1ccc(cc1)N(C)C)c1ccc(cc1)F,311.3,0.785702193,0.0597,-7.5467,8.25226,330.4482899933467,0.380468331,-0.5773,-7.9178,122.98474,-0.764,-8.339,5.09732,NaN,NaN,393,NaN,393,NaN,dichloromethane
HAZLMXXWWSFEIO-UHFFFAOYSA-N,CC(=O)C=NNc1snc2c1cc(cc2)[N+](=O)[O-],CC(=O)C=NNc1snc2c1cc(cc2)[N+](=O)[O-],361.4,0.399449467,-1.2041,-8.4103,4.81929,479.62939421858283,0.283912104,-2.6673,-8.5475,36.88366,-2.159,-9.105,6.0901,NaN,NaN,438,NaN,438,NaN,NaN
CHIFCDOIPRCHCF-UHFFFAOYSA-N,O=C1CN=C(c2c(N1)ccc(c2)Cl)c1ccccc1Cl,O=C1CN=C(c2c(N1)ccc(c2)Cl)c1ccccc1Cl,275.8,0.049770101,0.0825,-8.7893,3.15254,313.4872273211218,0.020741564,-0.7983,-9.0363,101.74760,-1.003,-9.309,2.85456,NaN,NaN,548,NaN,548,NaN,NaN
HEOHJQMAJQYENE-UHFFFAOYSA-N,O=C1C(c2ccc3c(n2)c(ccc3)N2C(=O)c3c(C2=O)cccc3)C(=O)c2c1cccc2,O=C1C(c2ccc3c(n2)c(ccc3)N2C(=O)c3c(C2=O)cccc3)C(=O)c2c1cccc2,319.0,0.001705397,-0.3286,-8.8554,2.70463,374.3484251373903,0.005584969,-1.4408,-8.36,34.81345,-1.196,-9.19,2.95696,NaN,NaN,452.0,25490,426.0,25490,PGMEA
GVGDDEYVTBKACE-UHFFFAOYSA-N,NCCCNc1ccccc1[N+](=O)[O-],NCCCNc1ccccc1[N+](=O)[O-],329.1,0.202104342,-0.2752,-8.1763,3.49866,455.65673798421045,0.147359849,-2.3412,-8.7316,96.72062,-0.813,-8.725,6.39513,NaN,NaN,NaN,NaN,NaN,NaN,NaN
SZUFPTYLDJPZFN-UHFFFAOYSA-N,Brc1ccc(cc1)C=CC(=O)c1nccnc1C,Brc1ccc(cc1)C=CC(=O)c1nccnc1C,337.2,0.001874587,-0.715,-8.8594,2.33838,368.78107794617387,0.000156342,-1.0055,-8.9876,337.60799,-1.392,-9.519,1.47686,NaN,NaN,315,NaN,315,NaN,ethanol
CCYIBXUGHCVCAC-UHFFFAOYSA-N,CCCCCOc1ccc(cc1)C1CC(=NN1c1ccc(c(c1)C)C)c1ccc(cc1)F,COc1ccc(cc1)C1CC(=NN1c1ccc(c(c1)C)C)c1ccc(cc1)F,319.5,0.959820992,0.6711,-6.9358,2.78311,338.47720012422513,0.495308732,-0.5859,-7.6116,178.88469,-0.628,-8.062,2.15265,332.9060306882889,0.6466191191,359,NaN,359,NaN,NaN
JDKFTOZLQQPMFM-UHFFFAOYSA-N,c1ccc(cc1)c1nc(c2ccccc2)c2c(n1)n(cc2)c1ccccc1,c1ccc(cc1)c1nc(c2ccccc2)c2c(n1)n(cc2)c1ccccc1,292.4,0.446938145,0.1528,-7.9554,2.66783,329.3947885374699,0.393360257,-0.3906,-7.6328,3.50584,-0.973,-8.728,2.41394,NaN,NaN,327.0,NaN,256.0,NaN,NaN
NNEBDBKRMINSRQ-UHFFFAOYSA-N,C=CCN1c2ccc(cc2C(C21C=Cc1c(O2)c(cc2c1ccc(c2)OC)c1nc(c(o1)c1ccccc1)c1ccccc1)(C)C)OC,C=CCN1c2ccc(cc2C(C21C=Cc1c(O2)c(cc2c1ccc(c2)OC)c1nc(c(o1)c1ccccc1)c1ccccc1)(C)C)OC,341.2,0.205174436,0.0252,-7.2952,1.52726,393.9758449491696,0.389825584,-0.8059,-7.1868,58.21931,-1.132,-7.928,2.37789,NaN,NaN,310,NaN,310,NaN,Toluene
HYBBIBNJHNGZAN-UHFFFAOYSA-N,O=Cc1ccco1,O=Cc1ccco1,303.5,5.1929e-05,0.1931,-9.2333,3.46828,362.632928942684,1.255e-06,-1.0889,-9.0485,29.30178,-0.712,-9.933,3.04097,NaN,NaN,1240,NaN,1240,NaN,NaN
YUCQLBYMHWOXFN-UHFFFAOYSA-N,CCCCCCC1(CCCCCC)c2cc(ccc2c2c1cc(cc2)N(c1ccc(cc1)CCCC)c1ccc(cc1)CCCC)c1ccc(cc1)C=C(C(=O)O)C#N,C1(C)c2cc(ccc2c2c1cc(cc2)N(c1ccc(cc1)C)c1ccc(cc1)C)c1ccc(cc1)C=C(C(=O)O)C#N,344.6,1.924834675,-0.9246,-7.0243,7.27278,358.85440927786874,0.962749991,-1.3552,-7.0677,477.19568,-1.522,-7.817,4.14685,NaN,NaN,441,NaN,441,NaN,NaN
LXPCQOHGCGPVLU-UHFFFAOYSA-N,N#CC(=Cc1ccc(cc1)c1ccc(cc1)N(c1ccc(cc1)OC)c1ccc(cc1)OC)C#N,N#CC(=Cc1ccc(cc1)c1ccc(cc1)N(c1ccc(cc1)OC)c1ccc(cc1)OC)C#N,355.7,1.581188633,-1.1203,-7.1627,11.19419,344.7836440642482,0.751583134,-1.1993,-7.32,121.09713,-1.576,-7.848,8.17638,382.6554520207384,1.311716007,525.0,NaN,300.0,NaN,NaN
ZRGLBJYDJDAGKU-UHFFFAOYSA-N,CCCCCCCCCCCCSc1ccc2c3c1cccc3C1=NC(=O)C(=C21)C#N,CSc1ccc2c3c1cccc3C1=NC(=O)C(=C21)C#N,412.6,0.049514367,-1.9215,-8.8751,8.70896,425.04010423552853,0.046219129,-2.0648,-8.6032,56.50587,-2.288,-9.161,7.57165,NaN,NaN,531,NaN,531,NaN,NaN
QGQILXBVXCHHOM-GJZGRUSLSA-N,O=C(c1ccccc1)[C@@H]1O[C@H]1c1ccc(cc1)[N+](=O)[O-],O=C(c1ccccc1)[C@@H]1O[C@H]1c1ccc(cc1)[N+](=O)[O-],315.9,4.1754e-05,-0.5439,-9.7197,5.50335,421.28507783045757,7.8834e-05,-2.4675,-9.7073,165.85087,-1.466,-10.338,5.66478,NaN,NaN,324.0,NaN,222.0,NaN,NaN
BVAVGENDUGNKQB-UHFFFAOYSA-N,N#CC(=CC=CC=Cc1ccc(cc1)N(C)C)C(=O)NC(CO)(CO)CO,N#CC(=CC=CC=Cc1ccc(cc1)N(C)C)C(=O)NC(CO)(CO)CO,382.6,1.967572988,-0.9306,-7.2462,8.11362,401.5032331784445,0.905534226,-1.3465,-7.6065,311.53414,-1.341,-8.187,6.13805,422.93772133460493,1.6648592983,486,NaN,486,NaN,NaN
FZZCUWIWZISNFP-UHFFFAOYSA-N,C#Cc1ccc2c(c1)C(=O)c1c2ccc(c1)C(=O)C,C#Cc1ccc2c(c1)C(=O)c1c2ccc(c1)C(=O)C,360.1,0.097219783,-1.0443,-8.6625,2.48139,400.7246231593525,0.126187154,-1.6227,-8.398,38.29194,-1.677,-9.449,2.41698,NaN,NaN,502.0,NaN,337.0,NaN,NaN
QEXSBVKYZNZUIG-UHFFFAOYSA-N,COc1ccc(cc1)c1sc(c2c1cc1ccccc1c2)c1cccs1,COc1ccc(cc1)c1sc(c2c1cc1ccccc1c2)c1cccs1,475.2,0.433035005,-0.5993,-6.629,1.48836,605.6873395481371,0.337518112,-1.3216,-6.3751,175.31528,-1.563,-7.794,1.90079,NaN,NaN,570,NaN,570,NaN,CH 2 Cl
UORJTCOUAFRQTP-UHFFFAOYSA-N,CCCCCCCCCCOc1ccc(cc1)C1CC(=NN1c1ccc(c(c1)C)C)c1ccc(cc1)F,COc1ccc(cc1)C1CC(=NN1c1ccc(c(c1)C)C)c1ccc(cc1)F,319.3,0.954754855,0.6673,-6.9453,2.77741,338.20021387207765,0.494392127,-0.5863,-7.6137,178.46230,-0.627,-8.069,2.16085,NaN,NaN,343,NaN,343,NaN,NaN
UVLJDBKQZZSASM-UHFFFAOYSA-N,Cc1ccc2c(n1)c(ccc2N=Nc1ccc(cc1)[N+](=O)[O-])OC(=O)c1ccccc1,Cc1ccc2c(n1)c(ccc2N=Nc1ccc(cc1)[N+](=O)[O-])OC(=O)c1ccccc1,467.3,0.001028354,-1.4732,-8.5521,5.61095,531.6646586856932,0.012742877,-2.5058,-8.3277,246.61633,-1.968,-9.228,7.0283,NaN,NaN,376.0,NaN,369.0,NaN,NaN