inchikey,smi_pre,smi_post,lambda_sTDA (nm),f1_sTDA,lumo_dft,homo_dft,dmom_dft (D),lambda_z (nm),f1_z,lumo_z,homo_z,dmom_z (D),lumo_mopac,homo_mopac,dmom_mopac (D),lambda_tddft (nm),f1_tddft,lambda_exp_max (nm),epsilon_exp_max ,lambda_exp_min (nm),epsilon_exp_min ,solvent
VVNGHPPXMFKPHM-UHFFFAOYSA-N,CCCCCCn1c2cc(ccc2c2c1cc(cc2)n1c2ccccc2c2c1cccc2)n1c2ccccc2c2c1cccc2,Cn1c2cc(ccc2c2c1cc(cc2)n1c2ccccc2c2c1cccc2)n1c2ccccc2c2c1cccc2,294.6,0.610213617,0.3533,-7.5219,0.93029,342.0253749117342,0.852296318,-0.1364,-7.2946,8.61786,-0.794,-8.024,1.45336,NaN,NaN,343,NaN,343,NaN,NaN
VDWGJYWTSXAVMA-UHFFFAOYSA-N,CCCCCCCCC1(CCCCCCCC)c2cc3nc([nH]c3cc2c2c1cc1nc([nH]c1c2)c1ccc(o1)C)c1ccc(o1)C,C1(C)c2cc3nc([nH]c3cc2c2c1cc1nc([nH]c1c2)c1ccc(o1)C)c1ccc(o1)C,335.5,2.082375459,0.2761,-6.9208,6.60574,430.0527173274494,1.386685132,-0.676,-6.7082,26.98801,-0.989,-8.188,8.32132,342.4126405292592,1.888844327,398.0,NaN,377.0,NaN,NaN
REHDSXMOFNXMHV-UHFFFAOYSA-N,COc1ccccc1C=Cc1ccc(cc1)c1nnc(o1)c1c2ccccc2cc2c1cccc2,COc1ccccc1C=Cc1ccc(cc1)c1nnc(o1)c1c2ccccc2cc2c1cccc2,371.5,0.575575224,-0.4713,-7.553,5.21855,392.4792605429049,0.619572056,-0.9,-7.3238,59.33167,-1.475,-8.552,6.17259,NaN,NaN,349,NaN,349,NaN,NaN
LTMWNJNHHOMTEE-UHFFFAOYSA-N,[O-][N+](=O)c1ccc(cc1)S(=O)(=O)c1cnc(s1)N=Nc1ccc(c2c1cccn2)O,[O-][N+](=O)c1ccc(cc1)S(=O)(=O)c1cnc(s1)N=Nc1ccc(c2c1cccn2)O,468.5,0.001288749,-1.6308,-8.3238,5.32306,525.802368131907,0.012002683,-2.9515,-8.6318,232.24807,-2.088,-9.354,6.12052,NaN,NaN,593.0,NaN,491.0,NaN,DMSO
PRKOVRGARXSKEE-UHFFFAOYSA-N,CC(c1ccc(cc1)C=Cc1ccc2c(c1)ccc1c2C(=C=C(c2ccccc2)c2ccccc2)C(O1)(c1ccccc1)c1ccccc1)C,CC(c1ccc(cc1)C=Cc1ccc2c(c1)ccc1c2C(=C=C(c2ccccc2)c2ccccc2)C(O1)(c1ccccc1)c1ccccc1)C,326.5,0.291101894,0.1995,-7.2133,0.87408,379.9699614020952,0.287138244,-0.4272,-7.1929,183.26232,-0.82,-8.22,0.91193,NaN,NaN,467.0,NaN,467.0,NaN,THF
XFQASXUMEDWCGD-UHFFFAOYSA-N,COC(=O)c1n2nc(C=Cc3cccc4c3cccc4)ccc2c(c1C(=O)OC)C(=O)OC,COC(=O)c1n2nc(C=Cc3cccc4c3cccc4)ccc2c(c1C(=O)OC)C(=O)OC,324.6,0.833292871,-0.4945,-8.0471,4.02100,373.89685888270105,0.268185313,-1.3431,-8.1159,285.60793,-1.444,-9.113,5.25848,335.8548949215501,0.7828312877,453.0,NaN,335.0,NaN,MeOH
JKWLLCMHLSEEBZ-UHFFFAOYSA-N,CCCCCCCCC1(CCCCCCCC)c2cc3nc([nH]c3cc2c2c1cc1nc([nH]c1c2)c1ccc(cc1)Cl)c1ccc(cc1)Cl,C1(C)c2cc3nc([nH]c3cc2c2c1cc1nc([nH]c1c2)c1ccc(cc1)Cl)c1ccc(cc1)Cl,332.1,2.170487718,-0.1289,-7.3144,4.51411,398.27882558786916,1.354084596,-0.889,-7.1417,140.41881,-1.282,-8.513,4.85048,338.29247751497803,2.0663960809,374.0,NaN,373.0,NaN,NaN
YHDCXSZRHXPQLT-UHFFFAOYSA-N,CCOC(=O)c1c(O)c(N=Nc2ccc(cc2)Cl)c2c(c1O)cccc2,CCOC(=O)c1c(O)c(N=Nc2ccc(cc2)Cl)c2c(c1O)cccc2,401.3,0.001626216,-0.7138,-7.6525,1.47852,544.9854874967194,0.010381721,-1.7211,-7.9499,139.89909,-1.509,-8.694,1.33077,NaN,NaN,468.0,NaN,426.0,NaN,DMSO
FIHILUSWISKVSR-UHFFFAOYSA-N,Brc1ccc2c(c1)c1cc(Br)ccc1[nH]2,Brc1ccc2c(c1)c1cc(Br)ccc1[nH]2,294.0,0.037476206,0.3573,-8.0401,4.38333,318.8893991911103,0.011346678,-0.4879,-8.3667,209.65755,-0.93,-8.729,4.15225,NaN,NaN,412.0,NaN,348.0,NaN,Cyclohexane
PYZRQGJRPPTADH-UHFFFAOYSA-N,Nc1nnc(c(n1)N)c1cccc(c1Cl)Cl,Nc1nnc(c(n1)N)c1cccc(c1Cl)Cl,345.3,0.014492305,0.6516,-8.4652,3.63586,389.88741636950834,0.004721539,-0.5772,-8.3716,128.73769,-0.781,-9.207,4.05136,NaN,NaN,NaN,NaN,NaN,NaN,NaN
CRMGGPRWSYJRMY-UHFFFAOYSA-N,CCCCCCCCCCCCN(c1ccccc1C=O)CCCCCCCCCCCC,CN(c1ccccc1C=O)C,327.5,0.013632391,0.2388,-8.3485,4.10360,364.3379324287501,0.000175137,-0.6878,-9.0829,53.85799,-0.533,-9.348,4.72783,NaN,NaN,415.0,NaN,405.0,NaN,Butanol
BWGOLCPQSFYTAJ-UHFFFAOYSA-N,CCN(c1ccc2c(c1)oc(=NC(=O)Nc1cccc(c1)OC)c(c2)C#N)CC,CCN(c1ccc2c(c1)oc(=NC(=O)Nc1cccc(c1)OC)c(c2)C#N)CC,329.1,1.017892631,-0.5931,-7.6599,11.30568,405.70745551539153,0.572175788,-1.4938,-7.9544,181.30804,-1.389,-8.467,12.35765,357.36494209154165,0.8149863901,443,NaN,443,NaN,NaN
AMFUOCBULFKMPZ-UHFFFAOYSA-N,Cc1ccc(cc1)N=Nc1c(C)nn2c1[nH]c(c2N=Nc1ccccc1)c1ccccc1,Cc1ccc(cc1)N=Nc1c(C)nn2c1[nH]c(c2N=Nc1ccccc1)c1ccccc1,444.0,0.001748054,-0.756,-7.322,3.78402,530.5271647646712,0.002575785,-1.3816,-7.4658,62.76936,-1.495,-8.452,3.91207,NaN,NaN,527.0,NaN,448.0,NaN,NaN
AXOOSNFMSKZLPR-UHFFFAOYSA-N,C#CCCCn1cccc1c1cccs1,C#Cn1cccc1c1cccs1,268.2,0.482085519,0.8528,-7.8945,0.92606,346.42134228975596,0.401809609,-0.2159,-7.514,56.67254,-0.7,-8.78,1.43837,NaN,NaN,284,NaN,284,NaN,NaN
KONSZINEHLICOA-OAHLLOKOSA-N,O=C(c1ccccc1)C#C[C@@H]1COC(N1C(=O)OC(C)(C)C)(C)C,O=C(c1ccccc1)C#C[C@@H]1COC(N1C(=O)OC(C)(C)C)(C)C,304.6,8.0005e-05,-0.2422,-9.4724,2.43420,361.3646120824939,0.00571495,-0.8057,-9.2396,74.14994,-0.816,-9.846,2.04394,NaN,NaN,NaN,NaN,NaN,NaN,NaN
BEZVGIHGZPLGBL-UHFFFAOYSA-N,CC(=O)c1cccc(n1)C(=O)C,CC(=O)c1cccc(n1)C(=O)C,314.6,3.781e-06,-0.2429,-9.6275,0.11623,365.8430168353605,0.000285255,-1.2311,-9.8099,15.55782,-1.168,-10.448,0.68894,NaN,NaN,0,NaN,0,NaN,NaN
XFFYRJAKMIIOPH-UHFFFAOYSA-N,N#Cc1c(cc(nc1c1ccccc1)c1ccc(cc1)c1ccc2c(c1)c1ccccc1n2c1ccccc1)c1ccc(cc1)C,N#Cc1c(cc(nc1c1ccccc1)c1ccc(cc1)c1ccc2c(c1)c1ccccc1n2c1ccccc1)c1ccc(cc1)C,296.9,1.270540227,-0.2595,-7.6082,6.26049,330.9775718246227,0.062439017,-0.5747,-7.6144,68.54393,-1.17,-8.266,4.67487,309.9449852738349,1.5427739542,348,NaN,348,NaN,NaN
XGQPSNPXVBJMKD-UHFFFAOYSA-N,[N-]=[N+]=C1C=CC=c2c1c1C=c3c(=c1cc2)cccc3,[N-]=[N+]=C1C=CC=c2c1c1C=c3c(=c1cc2)cccc3,1241.1,0.028210714,-1.6984,-6.1743,6.98030,1545.9376359788487,0.028748104,-2.4245,-6.3649,65.59537,-2.236,-7.426,5.07936,NaN,NaN,423,NaN,423,NaN,NaN
LOVODYYPSQJVCB-UHFFFAOYSA-N,CCC1=C(C)C(=O)NC1=Cc1[nH]c(c(c1C)CCCC(=O)O)C(c1[nH]c(c(c1CCCC(=O)O)C)C=C1NC(=O)C(=C1CC)C)(C)C,C1=C(C)C(=O)NC1=Cc1[nH]c(c(c1C)C(=O)O)C(c1[nH]c(c(c1C(=O)O)C)C=C1NC(=O)C(=C1CC)C)(C)C,307.8,1.67802867,0.0443,-7.3401,0.63917,420.71326231932017,0.181712433,-0.8483,-7.2723,85.31538,-0.941,-8.291,1.3388,343.73216803226904,1.3263543206,447.0,NaN,394.0,NaN,Benzene
CTQNGGLPUBDAKN-UHFFFAOYSA-N,Cc1ccccc1C,Cc1ccccc1C,231.7,0.001322682,1.9465,-8.7418,0.63400,274.24065119554007,0.007241144,0.7957,-8.5636,15.73086,0.417,-9.212,1.08838,NaN,NaN,234,NaN,234,NaN,NaN
MWNWENNYLQPKKC-UHFFFAOYSA-N,CCCCC#Cc1c(CCCC)oc(=O)c2c1ccs2,C#Cc1c(C)oc(=O)c2c1ccs2,277.8,0.155299264,0.1067,-8.408,4.40391,373.1092338414194,0.109785382,-1.2778,-8.3657,108.48511,-1.233,-8.682,3.2131,NaN,NaN,NaN,NaN,NaN,NaN,NaN
COHYTHOBJLSHDF-UHFFFAOYSA-N,O=C1c2ccccc2NC1=C1Nc2c(C1=O)cccc2,O=C1c2ccccc2NC1=C1Nc2c(C1=O)cccc2,442.6,0.482478761,-1.1873,-7.5071,0.00323,424.7488811425271,0.370885826,-1.6295,-8.0788,0.01554,-1.607,-8.188,0.00653,NaN,NaN,536.2,NaN,321.2,NaN,NaN
LNPDTQAFDNKSHK-UHFFFAOYSA-N,Cc1onc(c1c1ccc(cc1)S(=O)(=O)N)c1ccccc1,Cc1onc(c1c1ccc(cc1)S(=O)(=O)N)c1ccccc1,247.2,0.129357135,0.4141,-9.0316,2.57800,285.02114575977856,0.189810061,-0.7622,-8.9002,179.65927,-0.825,-9.728,1.8707,NaN,NaN,NaN,NaN,NaN,NaN,NaN
JGKOBEFQCFRUSF-UHFFFAOYSA-N,OC(=O)COc1ccc(cc1)N=Nc1ccccc1,OC(=O)COc1ccc(cc1)N=Nc1ccccc1,433.8,4.05e-07,-0.4025,-8.1745,2.55444,528.2667166830151,0.001863318,-1.2717,-8.2473,189.83277,-1.236,-9.023,2.30137,NaN,NaN,320.5,NaN,320.5,NaN,NaN
WFYSPVCBIJCZPX-UHFFFAOYSA-N,c1ccc2c(c1)c(ccc2c1nc2c(o1)cccc2)c1nc2c(o1)cccc2,c1ccc2c(c1)c(ccc2c1nc2c(o1)cccc2)c1nc2c(o1)cccc2,334.4,1.066022202,-0.558,-7.9759,2.36225,366.27532763812013,0.842869031,-1.1267,-7.8516,19.36088,-1.606,-8.937,2.01996,356.5838165350574,1.0211756969,355.0,NaN,289.0,NaN,NaN
SSRBBYUGRMSIBT-UHFFFAOYSA-N,Oc1ccc(cc1)n1cccc1,Oc1ccc(cc1)n1cccc1,253.6,0.041915729,1.3467,-8.1212,2.42592,293.24550237820165,0.028825072,0.2385,-8.0961,47.13679,-0.426,-8.627,2.45492,NaN,NaN,325,NaN,325,NaN,CHCl3
ONASMBRWDSADQY-UHFFFAOYSA-N,COc1ccc(cc1)c1c2ccccc2c(c2c1cc(Cl)cc2)c1ccc(cc1)OC,COc1ccc(cc1)c1c2ccccc2c(c2c1cc(Cl)cc2)c1ccc(cc1)OC,373.5,0.291572059,-0.1685,-7.3546,2.04426,389.7648488069904,0.289636077,-0.8845,-7.3362,185.10394,-1.198,-8.317,2.54989,NaN,NaN,445.1,NaN,362.0,NaN,NaN
CFLHFRUIYUCACJ-UHFFFAOYSA-N,c1ccc2c(c1)nc1c(n2)Sc2c(S1)nc1c(n2)cccc1,c1ccc2c(c1)nc1c(n2)Sc2c(S1)nc1c(n2)cccc1,314.1,0.020334792,-0.5385,-8.3449,1.00570,368.78107794617387,0.034403942,-1.1818,-8.6499,77.87119,-1.473,-8.61,1.32094,NaN,NaN,389.0,NaN,386.0,NaN,NaN
FJHITKPDTMOACD-UHFFFAOYSA-N,N#CC(=C(c1ccccc1)C=Cc1cn(c2c1cccc2)CC)C#N,N#CC(=C(c1ccccc1)C=Cc1cn(c2c1cccc2)CC)C#N,326.8,1.577630532,-0.8102,-7.822,12.00574,393.35088326619183,0.773135434,-1.3263,-7.707,125.21991,-1.5,-8.57,9.43203,365.79982595515264,1.070857674,469.0,NaN,445.0,NaN,Toluene
UQRORLSMRFANID-UHFFFAOYSA-N,COc1ccc2c(c1)c(NCCN1CCNCC1)c1c(n2)cc(cc1)Cl,COc1ccc2c(c1)c(NCCN1CCNCC1)c1c(n2)cc(cc1)Cl,368.4,0.157182442,-0.2643,-7.3977,4.86423,377.19561425465065,0.166853656,-1.1235,-7.7344,180.82744,-1.266,-8.187,6.08908,NaN,NaN,421,NaN,421,NaN,NaN
NWOBUJDPUALAHU-UHFFFAOYSA-N,Cc1c(sc2c1c(C)c(s2)c1nnc(o1)c1ccc2c(c1)cccc2)c1nnc(o1)c1ccc2c(c1)cccc2,Cc1c(sc2c1c(C)c(s2)c1nnc(o1)c1ccc2c(c1)cccc2)c1nnc(o1)c1ccc2c(c1)cccc2,312.4,1.562894224,-0.2478,-8.0112,5.17846,415.4966434500793,1.382644184,-1.1848,-7.5316,90.83824,-1.609,-8.573,6.31891,316.302344530944,1.73737091,362,NaN,362,NaN,Ethanol
GQMAOPRRHWJXFB-LBPRGKRZSA-N,NCCCC[C@@H](C(=O)O)NCc1c(cnc(c1O)C)COP(=O)(O)O,NC[C@@H](C(=O)O)NCc1c(cnc(c1O)C)COP(=O)(O)O,246.9,0.109005927,0.7463,-9.094,8.55567,294.28957608712,0.095768482,-0.1997,-8.7612,206.00547,-0.822,-9.562,5.18704,NaN,NaN,NaN,NaN,NaN,NaN,NaN
WGGAOFZTDSENFI-UHFFFAOYSA-N,Cc1ccc(cc1)NC(C1=C(O)C(=O)c2c(C1=O)cccc2)c1cccc(c1)[N+](=O)[O-],Cc1ccc(cc1)NC(C1=C(O)C(=O)c2c(C1=O)cccc2)c1cccc(c1)[N+](=O)[O-],428.5,0.000467194,-1.5328,-7.6615,4.77884,451.34400584457103,0.001464948,-2.503,-8.0837,213.40206,-2.134,-8.318,7.00734,NaN,NaN,476,2630.2679918953813,476,2630.2679918953813,NaN
MUEFEVWMGLNAST-UHFFFAOYSA-N,NCCN1C2(c3ccc(cc3Oc3c2ccc(c3)N2CCOCC2)N2CCOCC2)c2c(S1(=O)=O)cccc2,NCCN1C2(c3ccc(cc3Oc3c2ccc(c3)N2CCOCC2)N2CCOCC2)c2c(S1(=O)=O)cccc2,263.6,0.003152355,0.7819,-7.943,6.58157,300.786507533973,0.028180472,-0.4484,-8.2044,160.21207,-0.535,-8.533,7.55591,NaN,NaN,552,NaN,552,NaN,NaN
DMBHHRLKUKUOEG-UHFFFAOYSA-N,c1ccc(cc1)Nc1ccccc1,c1ccc(cc1)Nc1ccccc1,270.0,0.264229713,1.4705,-7.4785,0.84331,292.208810760084,0.021476429,0.5308,-7.7037,8.55817,-0.065,-8.165,0.77133,NaN,NaN,328,NaN,328,NaN,silica
LSFUGETUJHKBKV-UHFFFAOYSA-N,Oc1ccc(cc1)C=C1N=C(N(C1=O)Cc1ccccc1)C,Oc1ccc(cc1)C=C1N=C(N(C1=O)Cc1ccccc1)C,316.9,1.047549314,-0.1524,-7.6695,4.22799,350.9317815043976,0.758898321,-0.9589,-7.9479,90.01485,-1.048,-8.628,3.88918,337.4545957084441,0.8230088704,372.0,NaN,372.0,NaN,NaN
URYXUCZDBHSYIX-HXUWFJFHSA-N,CCCC[C@H](N(C(=O)c1cc2ccccc2cc1c1cc2ccccc2cc1C(=O)OC)C)C,C[C@H](N(C(=O)c1cc2ccccc2cc1c1cc2ccccc2cc1C(=O)OC)C)C,295.4,0.053083554,0.1405,-8.0568,2.73351,332.21918115086726,0.048366087,-0.665,-7.9344,53.35529,-0.881,-8.961,3.04956,NaN,NaN,257.2,18100,221.6,17700,NaN
KYNBNVJQGVJVHL-UHFFFAOYSA-N,CCOC(=O)c1ccc(cc1)Nc1cncc(c1)Cl,CCOC(=O)c1ccc(cc1)Nc1cncc(c1)Cl,284.5,0.450611283,0.3852,-8.121,0.86045,316.2862204222032,0.349982253,-0.7692,-8.3846,134.76836,-1.053,-8.887,1.71715,NaN,NaN,NaN,NaN,NaN,NaN,NaN
QLQHAHDIYGVQJO-UHFFFAOYSA-N,c1ccc(cc1)c1nc2c(sc(c2nc1c1ccccc1)c1ccccc1)c1ccccc1,c1ccc(cc1)c1nc2c(sc(c2nc1c1ccccc1)c1ccccc1)c1ccccc1,423.8,0.318831898,-0.8272,-7.3883,1.42239,541.4157135611514,0.232594792,-1.3124,-6.8903,113.47198,-1.655,-8.484,0.67941,NaN,NaN,488.0,NaN,320.0,NaN,Toluene
QJBMVCDGBSYRJD-UHFFFAOYSA-N,O=C1OC(=NC1=Cc1ccco1)c1ccccc1,O=C1OC(=NC1=Cc1ccco1)c1ccccc1,333.6,1.228540549,-0.8344,-7.9264,3.66715,403.0695656875932,0.797330175,-1.3693,-7.7162,70.98056,-1.656,-8.961,2.88333,357.9530357976714,0.9259819581,389.0,NaN,389.0,NaN,THF
NGDCLPXRKSWRPY-UHFFFAOYSA-N,c1ccc2c(c1)C1c3c(C2c2c1cccc2)cccc3,c1ccc2c(c1)C1c3c(C2c2c1cccc2)cccc3,239.7,2.393e-06,1.5138,-8.2638,0.01881,292.89912214860306,1.14e-07,0.4628,-7.5228,0.00318,0.137,-9.141,0.00021,NaN,NaN,354.0,NaN,332.0,NaN,MTHF
QIYHCQVVYSSDTI-UHFFFAOYSA-N,Oc1ccccc1C=Nc1ccccc1,Oc1ccccc1C=Nc1ccccc1,298.7,0.509205116,0.0068,-8.2468,2.23757,349.4481353029979,0.000432638,-0.503,-8.4304,35.10148,-0.649,-9.125,2.64429,NaN,NaN,603.0,NaN,367.0,NaN,NaN
UUWIQLMEOBAUIS-UHFFFAOYSA-N,Cc1nn2c(c1N=Nc1cccc(c1)[N+](=O)[O-])[nH]c(c2N=Nc1ccccc1)c1ccccc1,Cc1nn2c(c1N=Nc1cccc(c1)[N+](=O)[O-])[nH]c(c2N=Nc1ccccc1)c1ccccc1,445.6,0.001502448,-0.9655,-7.7032,8.95087,530.0735288820165,0.002276408,-2.3859,-7.7008,268.27426,-1.696,-8.698,8.5251,NaN,NaN,540.0,NaN,450.0,NaN,NaN
ZFJQASJXKNWCCV-UHFFFAOYSA-N,Nc1nc2n(c(c1N=Nc1ccccc1)N)nc(c2N=Nc1nccs1)N,Nc1nc2n(c(c1N=Nc1ccccc1)N)nc(c2N=Nc1nccs1)N,430.1,0.002692381,-0.7197,-7.3727,4.66509,519.1968107433152,0.00916302,-1.5536,-7.4315,242.50930,-1.438,-8.371,5.66387,NaN,NaN,476,NaN,476,NaN,NaN
ZXKZHLRHEBNMBY-UHFFFAOYSA-N,COc1cc2c(cc1C=C(c1ccccc1)c1ccccc1)c1c(n2C)ccc(c1)C=C(c1ccccc1)c1ccccc1,COc1cc2c(cc1C=C(c1ccccc1)c1ccccc1)c1c(n2C)ccc(c1)C=C(c1ccccc1)c1ccccc1,320.4,0.62375328,0.4832,-7.0879,2.23576,349.7438601001514,0.04436278,0.0496,-7.1216,73.75263,-0.271,-7.968,4.06554,NaN,NaN,474.0,NaN,316.0,NaN,THF
LKZBIGOCNMTKJG-UHFFFAOYSA-N,COc1ccc(cc1)NC1=C(Br)C(=O)OC1OC,COc1ccc(cc1)NC1=C(Br)C(=O)OC1OC,242.9,0.037655237,1.0285,-8.4332,8.56132,326.2742063302728,0.000449535,-0.624,-8.7703,331.79380,-0.567,-8.829,8.54792,NaN,NaN,286,NaN,286,NaN,NaN
PFTLYBUCJWXSIA-UHFFFAOYSA-N,O=C1OC(=O)c2c3c1ccc1c3c(cc2)c2c3c1cccc3c(cc2)N(C)C,O=C1OC(=O)c2c3c1ccc1c3c(cc2)c2c3c1cccc3c(cc2)N(C)C,432.9,0.859710274,-1.4583,-7.4884,11.13623,456.32756130108083,0.831375462,-1.9905,-7.6251,255.85305,-2.192,-8.685,11.20538,NaN,NaN,561.0,NaN,444.0,NaN,NaN
PTGSRJOTAKHXFY-UHFFFAOYSA-N,Clc1ccc(c(c1)[N+](=O)[O-])c1ccc(o1)C=Nc1ccc2c(c1)ccc(=O)o2,Clc1ccc(c(c1)[N+](=O)[O-])c1ccc(o1)C=Nc1ccc2c(c1)ccc(=O)o2,332.1,1.01108005,-0.8342,-8.1709,7.99542,513.3921259027067,0.03429316,-2.7256,-8.3699,208.73343,-1.826,-9.128,6.69435,358.2115827147794,0.7284654193,352,23200.0,352,23200.0,NaN
ODHMUPPUUQJAND-UHFFFAOYSA-N,CC(c1ccc(cc1)c1nnc(o1)c1ccc(cc1)C1=Cc2c(C1)cccc2)(C)C,CC(c1ccc(cc1)c1nnc(o1)c1ccc(cc1)C1=Cc2c(C1)cccc2)(C)C,332.3,1.702435189,-0.263,-7.6911,3.36642,392.6035414993783,1.267711074,-0.9496,-7.4489,98.72887,-1.309,-8.684,4.34599,335.8548949215501,1.5651066046,349,NaN,349,NaN,NaN
UHSPOAOCKADALN-OAHLLOKOSA-N,Clc1ccc(cc1)[C@@H](C#Cc1ccccc1)O,Clc1ccc(cc1)[C@@H](C#Cc1ccccc1)O,245.4,0.2785344,0.6525,-8.8759,2.39584,329.1324619206362,0.003073675,0.0145,-8.4246,196.39164,-0.598,-9.601,2.97259,NaN,NaN,NaN,NaN,NaN,NaN,NaN
FLYJGCGSFSTQFZ-UHFFFAOYSA-N,Brc1ccc2c(c1)c1ccccc1n2c1cccc(c1)n1c2ccccc2c2c1cccc2,Brc1ccc2c(c1)c1ccccc1n2c1cccc(c1)n1c2ccccc2c2c1cccc2,290.8,0.054020227,0.5348,-7.8091,3.42352,324.9913457549244,0.091741129,-0.2484,-7.8095,509.48889,-0.788,-8.367,2.70283,NaN,NaN,0,NaN,0,NaN,NaN
FJEKPAAJRKPBEJ-UHFFFAOYSA-N,N#Cc1c(N)nc(c(c1c1ccccc1F)C#N)N,N#Cc1c(N)nc(c(c1c1ccccc1F)C#N)N,269.2,0.235121332,0.316,-8.5016,3.59087,324.1416951777873,0.19004159,-0.5714,-8.5006,48.59017,-0.804,-9.34,3.7388,NaN,NaN,338.0,NaN,334.0,NaN,THF
OMMHQVBMXAOSJF-UHFFFAOYSA-N,CCCCCCn1c2ccc(cc2c2c1ccc(c2)c1ccc(s1)c1nccc(c1)C=C)c1ccc(s1)c1nccc(c1)C=C,Cn1c2ccc(cc2c2c1ccc(c2)c1ccc(s1)c1nccc(c1)C=C)c1ccc(s1)c1nccc(c1)C=C,322.0,2.183154394,0.1642,-7.2572,4.11882,384.5663722255076,1.245324046,-0.5606,-7.2905,16.84905,-0.967,-8.204,5.00882,338.29247751497803,1.8964961053,785.63,NaN,401.0,NaN,Toluene
MVBXDJJCBSJDLT-UHFFFAOYSA-N,N#Cc1ccc(cc1)C=Cc1ccc(cc1)c1nc(c([nH]1)c1ccc(cc1)N(C)C)c1ccc(cc1)N(C)C,N#Cc1ccc(cc1)C=Cc1ccc(cc1)c1nc(c([nH]1)c1ccc(cc1)N(C)C)c1ccc(cc1)N(C)C,352.8,2.243318923,-0.517,-6.6509,10.57307,392.4792605429049,0.729418654,-0.7155,-6.8396,185.72225,-1.103,-7.699,8.43008,376.9089314766361,1.8644716442,407,NaN,407,NaN,CH 2 Cl 2
SVWURZVYTPTKJP-UHFFFAOYSA-N,O=Cc1ccc(s1)c1sc(c2c1cccc2)c1csc2c1cccc2,O=Cc1ccc(s1)c1sc(c2c1cccc2)c1csc2c1cccc2,379.4,0.832598575,-0.7048,-7.4923,4.53155,496.9306549318784,0.500581595,-1.4435,-7.1917,198.44335,-1.687,-8.387,3.72873,406.97256855158196,0.6316462115,505,NaN,505,NaN,CH 2 Cl
KURWKDDWCJELSV-UHFFFAOYSA-N,Cn1c2ccccc2cc2c1c1ccccc1n2,Cn1c2ccccc2cc2c1c1ccccc1n2,510.0,0.047857359,-0.6617,-7.0735,5.80735,542.6004306586593,0.044277288,-1.2781,-7.1207,27.95716,-1.529,-7.841,7.03075,NaN,NaN,499,NaN,499,NaN,NaN
NWOZUXAVCUWDFR-UHFFFAOYSA-N,COc1cc(ccc1O)C=C1N=C(N(C1=O)C)C,COc1cc(ccc1O)C=C1N=C(N(C1=O)C)C,321.8,1.008335177,-0.1415,-7.493,5.49485,348.56395390920346,0.718828913,-0.9708,-7.9554,54.72741,-1.151,-8.452,5.54576,343.13285088212837,0.775224827,377.0,NaN,377.0,NaN,NaN
UIWMDIFUHHOEEO-UHFFFAOYSA-N,CCCCN(c1ccc(cc1)C(=O)NC(C)C)CCCC,CN(c1ccc(cc1)C(=O)NC(C)C)C,267.5,0.061277145,1.4425,-7.5944,4.96408,296.61291484570256,0.032205634,0.0353,-8.2774,33.23633,0.058,-8.386,4.64239,NaN,NaN,308.0,NaN,288.0,NaN,Cl
IBNCVRIYRPKGDW-UHFFFAOYSA-N,CC(NC(=O)C(Cc1ccccc1)NC(=O)C)CCc1ccccc1,CC(NC(=O)C(Cc1ccccc1)NC(=O)C)CCc1ccccc1,235.3,0.00161316,1.3184,-8.9941,2.54218,283.0689461312869,0.001697774,0.4041,-8.6596,111.51718,0.02,-9.269,4.05641,NaN,NaN,NaN,NaN,NaN,NaN,NaN
GXDVUYJXGBMPPK-UHFFFAOYSA-N,N#Cc1c(C#N)nc(n1C)C=Cc1ccc(cc1)N(C)C,N#Cc1c(C#N)nc(n1C)C=Cc1ccc(cc1)N(C)C,323.3,1.588670929,-0.2332,-7.5056,12.84264,361.68085882585666,0.752743445,-1.0876,-7.9238,209.92403,-1.156,-8.356,12.18439,343.30387099332535,1.337960597,381,NaN,381,NaN,NaN
DHODVGPUNPTZJG-UHFFFAOYSA-N,N#Cc1c(N)nc(c(c1c1c(F)cccc1Cl)C#N)N,N#Cc1c(N)nc(c(c1c1c(F)cccc1Cl)C#N)N,272.5,0.241018802,0.2155,-8.5077,3.04538,326.96254853772064,0.196485518,-0.6691,-8.5247,36.18931,-0.916,-9.338,2.96885,NaN,NaN,343.0,NaN,338.0,NaN,THF
FUOPQYPLHGGEJU-UHFFFAOYSA-N,COc1ccc(cc1)c1ccc(nc1)c1ccc(cn1)C(=O)OC,COc1ccc(cc1)c1ccc(nc1)c1ccc(cn1)C(=O)OC,291.1,1.207470778,-0.2213,-8.0719,2.78434,335.36434515959877,0.918845957,-1.0945,-8.1225,123.21756,-1.36,-8.962,3.30912,298.43348901008414,1.1441621178,355.0,NaN,326.0,NaN,NaN
LNLWXWOYQHAKTD-ULQDDVLXSA-N,CSCC[C@@H](C(=O)N)NC(=O)[C@@H]1CCCN1C(=O)[C@H](Cc1ccc(cc1)O)NC(=O)CS,CSCC[C@@H](C(=O)N)NC(=O)[C@@H]1CCCN1C(=O)[C@H](Cc1ccc(cc1)O)NC(=O)CS,242.3,0.037735724,1.6515,-8.2896,6.47475,291.45321675012616,0.001258232,-0.0729,-8.413,181.75156,-0.879,-8.614,4.01941,NaN,NaN,NaN,NaN,NaN,NaN,NaN
YULYCWQVWOPOMA-UHFFFAOYSA-N,Clc1ccc(cc1)C1C2=C(Oc3c1c1cc(OCCCNCCNc4ccnc5c4ccc(c5)Cl)ccc1cc3)CC(CC2=O)(C)C,Clc1ccc(cc1)C1C2=C(Oc3c1c1cc(OCCCNCCNc4ccnc5c4ccc(c5)Cl)ccc1cc3)CC(CC2=O)(C)C,294.9,0.006377277,0.3224,-7.9627,2.80950,351.72822242696077,0.000195949,-0.6809,-7.8053,143.65354,-0.649,-8.506,2.82317,NaN,NaN,329,10000.0,329,10000.0,methanol
UFLBVEMEAYZXKY-QXFUBDJGSA-N,OC[C@H]1O[C@H](C[C@@H]1O)n1ccc2n(c1=O)ccn2,OC[C@H]1O[C@H](C[C@@H]1O)n1ccc2n(c1=O)ccn2,256.9,0.2411621,0.9639,-8.3668,3.57485,332.13018592419945,0.215978241,-0.6595,-8.2135,25.54992,-0.413,-8.931,4.55504,NaN,NaN,342.0,NaN,271.0,NaN,NaN
MNCRPGUDANEKTF-UHFFFAOYSA-N,N#CC(=Cc1ccc(cc1)c1ccc(cc1)c1[nH]c2c(n1)c(sc2c1ccc(cc1)C(C)(C)C)c1ccc(cc1)C(C)(C)C)C(=O)O,N#CC(=Cc1ccc(cc1)c1ccc(cc1)c1[nH]c2c(n1)c(sc2c1ccc(cc1)C(C)(C)C)c1ccc(cc1)C(C)(C)C)C(=O)O,361.4,1.107630097,-1.1497,-7.0779,3.52675,433.66281359042904,0.511497495,-1.4931,-6.868,430.09283,-1.638,-8.096,0.79747,396.53370329497375,0.7589201563,362,36700.0,362,36700.0,THF
GNKXJNJRDLYJEW-UHFFFAOYSA-N,CCN(c1ccc(cc1)C=Cc1ccc(cc1)C=Cc1ccc(cc1)B(c1c(C)cc(cc1C)C)c1c(C)cc(cc1C)C)CC,CCN(c1ccc(cc1)C=Cc1ccc(cc1)C=Cc1ccc(cc1)B(c1c(C)cc(cc1C)C)c1c(C)cc(cc1C)C)CC,364.9,2.621585635,-0.3058,-6.8569,4.37112,342.78185901438667,1.580493528,-0.3786,-7.2611,58.82442,-1.119,-7.896,3.4342,NaN,NaN,424.0,62200.0,414.0,53500.0,Acetonitrile
INZOILDDMIAIGM-UHFFFAOYSA-N,OC(C(C(=O)C)Cl)c1ccc(cc1)C#N,OC(C(C(=O)C)Cl)c1ccc(cc1)C#N,277.7,0.000107709,0.0178,-9.6668,4.86554,337.00516011281235,0.000347857,-0.7996,-9.2365,104.27441,-0.93,-10.21,5.36292,NaN,NaN,NaN,NaN,NaN,NaN,NaN
SWNUWQNBVVDFNS-UHFFFAOYSA-N,OCCC#Cc1ccc(cc1)SC,OCCC#Cc1ccc(cc1)SC,263.7,0.327463489,0.8892,-7.8821,1.59150,323.887665636112,0.002473387,0.185,-8.1552,71.20059,-0.658,-8.483,1.34206,NaN,NaN,NaN,NaN,NaN,NaN,NaN
VAYRAPDGSVSIJM-UHFFFAOYSA-N,CCCCCC(OC(=O)C(=Cc1ccccc1)OC)CC,C(OC(=O)C(=Cc1ccccc1)OC)CC,268.0,0.618678079,0.2175,-8.4999,2.24041,301.44468369925517,0.445574765,-0.7455,-8.582,38.55012,-0.658,-9.291,2.04594,NaN,NaN,311.0,23300,306.0,23300,NaN
XQOSVQCJVVPCTN-UHFFFAOYSA-N,Oc1ccc(c2c1nccc2)N=Nc1nc2c([nH]1)cccc2,Oc1ccc(c2c1nccc2)N=Nc1nc2c([nH]1)cccc2,418.8,0.000468143,-1.0441,-7.8516,1.77275,577.2076275861436,0.002072744,-1.895,-7.7317,84.19735,-1.81,-8.787,1.86019,NaN,NaN,558.0,NaN,437.0,NaN,DMSO