inchikey,smi_pre,smi_post,lambda_sTDA (nm),f1_sTDA,lumo_dft,homo_dft,dmom_dft (D),lambda_z (nm),f1_z,lumo_z,homo_z,dmom_z (D),lumo_mopac,homo_mopac,dmom_mopac (D),lambda_tddft (nm),f1_tddft,lambda_exp_max (nm),epsilon_exp_max ,lambda_exp_min (nm),epsilon_exp_min ,solvent
XIZOGZPQEPUTAP-SCLBCKFNSA-N,C=CC[C@@](c1cnn(c1)C)(N[S@](=O)C(C)(C)C)C,C=CC[C@@](c1cnn(c1)C)(N[S@](=O)C(C)(C)C)C,201.2,0.102289323,2.1894,-8.6751,4.36051,268.82957156440517,0.145397369,0.3133,-8.671,50.37149,0.764,-8.474,5.56796,NaN,NaN,254,NaN,254,NaN,NaN
DNVVZWSVACQWJE-UHFFFAOYSA-N,Nc1ccc(c(c1)O)C(=O)Oc1ccccc1,Nc1ccc(c(c1)O)C(=O)Oc1ccccc1,266.5,0.194576736,0.8682,-8.1615,3.31699,310.1931408694112,0.2593012,-0.6967,-8.5876,52.39042,-0.395,-9.036,4.07279,NaN,NaN,791,NaN,791,NaN,NaN
DKYWVDODHFEZIM-UHFFFAOYSA-N,OC(=O)C(c1cccc(c1)C(=O)c1ccccc1)C,OC(=O)C(c1cccc(c1)C(=O)c1ccccc1)C,307.8,0.001702766,0.1543,-9.189,4.34644,363.59002464957086,0.000815505,-0.5894,-9.0039,31.68403,-0.68,-9.907,3.31955,NaN,NaN,290,NaN,290,NaN,NaN
MHWLWQUZZRMNGJ-UHFFFAOYSA-N,CCn1cc(C(=O)O)c(=O)c2c1nc(C)cc2,CCn1cc(C(=O)O)c(=O)c2c1nc(C)cc2,277.1,0.162303756,-0.2571,-8.9222,8.88975,342.2141827366924,4.9108e-05,-1.2532,-9.155,143.65634,-1.191,-9.537,9.28192,NaN,NaN,336,NaN,336,NaN,NaN
IYIKLHRQXLHMJQ-UHFFFAOYSA-N,CCCCc1oc2c(c1C(=O)c1cc(I)c(c(c1)I)OCCN(CC)CC)cccc2,Cc1oc2c(c1C(=O)c1cc(I)c(c(c1)I)OCCN(CC)CC)cccc2,296.0,0.000877548,-0.0277,-8.2759,2.06303,NaN,NaN,NaN,Nan,NaN,-0.893,-8.78,1.21385,NaN,NaN,303,NaN,303,NaN,NaN
QRTMTZAUGTXZOA-JEKSYDDFSA-N,CN([C@@H]1C(=O)C(=C(O)N)C(=O)[C@@]2([C@H]1[C@@H](O)[C@H]1C(=C(O)c3c([C@@]1(C)O)cccc3O)C2=O)O)C.O.O,CN([C@@H]1C(=O)C(=C(O)N)C(=O)[C@@]2([C@H]1[C@@H](O)[C@H]1C(=C(O)c3c([C@@]1(C)O)cccc3O)C2=O)O)C.O.O,NaN,NaN,NaN,NaN,NaN,NaN,NaN,NaN,Nan,NaN,NaN,NaN,NaN,NaN,NaN,363,NaN,363,NaN,NaN
FPIPGXGPPPQFEQ-UHFFFAOYSA-N,OCC=C(C=CC=C(C=CC1=C(C)CCCC1(C)C)C)C,OCC=C(C=CC=C(C=CC1=C(C)CCCC1(C)C)C)C,NaN,NaN,NaN,NaN,NaN,NaN,NaN,NaN,Nan,NaN,NaN,NaN,NaN,NaN,NaN,370,NaN,370,NaN,NaN
ZPEIMTDSQAKGNT-UHFFFAOYSA-N,CN(CCCN1c2ccccc2Sc2c1cc(Cl)cc2)C,CN(CCCN1c2ccccc2Sc2c1cc(Cl)cc2)C,317.6,0.00393113,1.15,-7.2526,3.00039,305.00417811932016,0.126497351,0.2362,-7.8209,173.72160,-0.403,-7.651,4.56561,NaN,NaN,307,NaN,307,NaN,NaN
CGIGDMFJXJATDK-UHFFFAOYSA-N,COc1ccc2c(c1)c(CC(=O)O)c(n2C(=O)c1ccc(cc1)Cl)C,COc1ccc2c(c1)c(CC(=O)O)c(n2C(=O)c1ccc(cc1)Cl)C,280.1,0.016074574,0.0181,-8.0414,2.79773,322.95962074890247,0.109668816,-0.6894,-8.0586,131.94320,-0.998,-8.688,2.47356,NaN,NaN,320,NaN,320,NaN,NaN
PVHUJELLJLJGLN-UHFFFAOYSA-N,CCOC(=O)C1=C(C)NC(=C(C1c1cccc(c1)[N+](=O)[O-])C(=O)OC)C,CCOC(=O)C1=C(C)NC(=C(C1c1cccc(c1)[N+](=O)[O-])C(=O)OC)C,315.8,0.001288071,-0.1074,-8.1551,6.12641,423.58796858730324,9.333e-06,-2.3916,-8.4487,71.88772,-0.896,-8.967,10.0,NaN,NaN,358,NaN,358,NaN,NaN
CXOFVDLJLONNDW-UHFFFAOYSA-N,O=C1NC(=O)NC1(c1ccccc1)c1ccccc1,O=C1NC(=O)NC1(c1ccccc1)c1ccccc1,231.9,0.011797278,1.1104,-9.2281,2.86573,291.933596433962,0.009868568,-0.333,-8.7681,101.94091,-0.389,-9.879,3.30045,NaN,NaN,290,NaN,290,NaN,NaN
BSYNRYMUTXBXSQ-UHFFFAOYSA-N,CC(=O)Oc1ccccc1C(=O)O,CC(=O)Oc1ccccc1C(=O)O,246.4,0.037501417,0.3915,-9.4909,3.01333,293.17616080752816,0.00252348,-0.7967,-9.3197,59.03748,-0.804,-9.839,1.72371,NaN,NaN,290,NaN,290,NaN,NaN
OMPJBNCRMGITSC-UHFFFAOYSA-N,O=C(c1ccccc1)OOC(=O)c1ccccc1,O=C(c1ccccc1)OOC(=O)c1ccccc1,242.1,0.014996768,0.308,-9.7254,1.43289,295.41148059448096,0.001115835,-0.7041,-9.4719,8.72857,-0.792,-10.245,1.37974,NaN,NaN,290,NaN,290,NaN,NaN
BLFLLBZGZJTVJG-UHFFFAOYSA-N,CCOC(=O)c1ccc(cc1)N,CCOC(=O)c1ccc(cc1)N,256.3,0.015930239,1.1207,-8.1084,3.41518,291.8648738359314,0.245887964,-0.4779,-8.4903,20.63855,-0.191,-8.758,4.11064,NaN,NaN,290,NaN,290,NaN,NaN
NKANXQFJJICGDU-UHFFFAOYSA-N,CCC(=C(c1ccccc1)c1ccc(cc1)OCCN(C)C)c1ccccc1,CCC(=C(c1ccccc1)c1ccc(cc1)OCCN(C)C)c1ccccc1,270.2,0.447006163,0.9842,-7.5401,1.41963,294.77935902402197,0.052723501,0.4612,-7.6463,39.80702,0.158,-8.525,1.55799,NaN,NaN,290,NaN,290,NaN,NaN
LOUPRKONTZGTKE-FOEVPDMQSA-N,C=C[C@H]1CN2CC[C@@H]1C[C@H]2[C@@H](c1ccnc2c1cc(OC)cc2)O,C=C[C@H]1CN2CC[C@@H]1C[C@H]2[C@@H](c1ccnc2c1cc(OC)cc2)O,290.6,0.108491763,0.532,-8.1319,4.76499,318.56166085689534,0.102112421,-0.3373,-8.1793,108.50522,-0.809,-8.891,2.61213,NaN,NaN,331,NaN,331,NaN,NaN
ZZUFCTLCJUWOSV-UHFFFAOYSA-N,OC(=O)c1cc(c(cc1NCc1ccco1)Cl)S(=O)(=O)N,OC(=O)c1cc(c(cc1NCc1ccco1)Cl)S(=O)(=O)N,289.0,0.157568758,0.0889,-8.5246,4.29018,340.42888084981786,0.131819878,-1.5434,-8.5867,205.58751,-1.039,-9.383,5.74661,NaN,NaN,331,NaN,331,NaN,NaN
MUFYIYMZPMJECT-UHFFFAOYSA-M,[O-]C(=O)C(=COP(=O)O)c1ccccc1,[O-]C(=O)C(=COP(=O)O)c1ccccc1,NaN,NaN,NaN,NaN,NaN,NaN,NaN,NaN,Nan,NaN,NaN,NaN,NaN,NaN,NaN,435,NaN,435,NaN,NaN
WKSAUQYGYAYLPV-UHFFFAOYSA-N,CCc1nc(N)nc(c1c1ccc(cc1)Cl)N,CCc1nc(N)nc(c1c1ccc(cc1)Cl)N,242.3,0.138730428,1.1785,-8.1033,1.42420,303.288156569236,0.136349141,0.1466,-8.2089,120.01766,-0.289,-8.93,1.84709,NaN,NaN,420,NaN,420,NaN,NaN
IAJILQKETJEXLJ-RSJOWCBRSA-N,O=C[C@@H]([C@H]([C@H]([C@@H](C(=O)O)O)O)O)O,O=C[C@@H]([C@H]([C@H]([C@@H](C(=O)O)O)O)O)O,NaN,NaN,NaN,NaN,NaN,NaN,NaN,NaN,Nan,NaN,NaN,NaN,NaN,NaN,NaN,640,NaN,640,NaN,NaN
HSCJRCZFDFQWRP-JZMIEXBBSA-N,OC[C@H]1O[C@H](OP(=O)(OP(=O)(OC[C@H]2O[C@H]([C@@H]([C@@H]2O)O)n2ccc(=O)[nH]c2=O)O)O)[C@@H]([C@H]([C@@H]1O)O)O,OC[C@H]1O[C@H](OP(=O)(OP(=O)(OC[C@H]2O[C@H]([C@@H]([C@@H]2O)O)n2ccc(=O)[nH]c2=O)O)O)[C@@H]([C@H]([C@@H]1O)O)O,237.8,0.267934216,0.3692,-9.3811,5.75204,302.2530434068836,0.000598399,-0.4067,-9.2403,76.14752,-1.599,-10.08,0.96526,NaN,NaN,625,NaN,625,NaN,NaN
MHHDXUNFNAZUGB-UHFFFAOYSA-N,O=[V+2],O=[V+2],NaN,NaN,NaN,NaN,NaN,NaN,NaN,NaN,Nan,NaN,NaN,NaN,NaN,NaN,NaN,610,NaN,610,NaN,NaN
XMIJDTGORVPYLW-UHFFFAOYSA-N,[Si],[Si],NaN,NaN,NaN,NaN,NaN,NaN,NaN,NaN,Nan,NaN,NaN,NaN,NaN,NaN,NaN,254,NaN,254,NaN,NaN
KETPSFSOGFKJJY-UHFFFAOYSA-N,C=CCc1cc(OC)c(c(c1)c1cc(CC=C)cc(c1O)OC)O,C=CCc1cc(OC)c(c(c1)c1cc(CC=C)cc(c1O)OC)O,255.1,0.129077329,1.5936,-7.6697,0.96322,304.2557016085979,0.077795972,0.1892,-7.9198,52.43720,-0.19,-8.426,1.1654,NaN,NaN,254,NaN,254,NaN,NaN
NRUVOKMCGYWODZ-UHFFFAOYSA-N,[S][Pd],[S][Pd],NaN,NaN,NaN,NaN,NaN,NaN,NaN,NaN,Nan,NaN,NaN,NaN,NaN,NaN,NaN,238,NaN,238,NaN,NaN
QWXOJIDBSHLIFI-UHFFFAOYSA-N,COC1(OOC21C1CC3CC2CC(C1)(C3)Cl)c1cccc(c1)OP(=O)(O)O,COC1(OOC21C1CC3CC2CC(C1)(C3)Cl)c1cccc(c1)OP(=O)(O)O,259.4,0.0003695,0.9034,-9.3306,3.57614,280.57071374859396,0.002063841,0.1197,-9.1457,257.38787,-0.48,-9.166,3.0831,NaN,NaN,290,NaN,290,NaN,NaN
ANILMHFXORVZOV-UHFFFAOYSA-N,NC(=NCCCSSCCCN=C(N)N)N.[Br-].[Br-].[H+].[H+],NC(=NCCCSSCCCN=C(N)N)N.[Br-].[Br-].[H+].[H+],NaN,NaN,NaN,NaN,NaN,NaN,NaN,NaN,Nan,NaN,NaN,NaN,NaN,NaN,NaN,238,NaN,238,NaN,NaN
JFSHCYUNIKQIPE-XAZCMKEVSA-N,OC[C@H]1O[C@@H](Oc2cc3C[C@H]([N+](=CC=C4C[C@H](NC(=C4)C(=O)O)C(=O)O)c3cc2O)C(=O)[O-])[C@@H]([C@H]([C@@H]1O)O)O[C@@H]1O[C@H](CO)[C@H]([C@@H]([C@H]1O)O)O,OC[C@H]1O[C@@H](Oc2cc3C[C@H]([N+](=CC=C4C[C@H](NC(=C4)C(=O)O)C(=O)O)c3cc2O)C(=O)[O-])[C@@H]([C@H]([C@@H]1O)O)O[C@@H]1O[C@H](CO)[C@H]([C@@H]([C@H]1O)O)O,NaN,NaN,NaN,NaN,NaN,NaN,NaN,NaN,Nan,NaN,NaN,NaN,NaN,NaN,NaN,534,NaN,534,NaN,NaN
ATSKDYKYMQVTGH-POBNKHOBSA-N,OC[C@H]1O[C@@H](Oc2cc3C[C@H]([N+](=CC=C4C[C@H](NC(=C4)C(=O)O)C(=O)O)c3cc2O)C(=O)[O-])[C@@H]([C@H]([C@@H]1O)O)O[C@@H]1O[C@H](C(=O)O)[C@H]([C@@H]([C@H]1O)O)O,OC[C@H]1O[C@@H](Oc2cc3C[C@H]([N+](=CC=C4C[C@H](NC(=C4)C(=O)O)C(=O)O)c3cc2O)C(=O)[O-])[C@@H]([C@H]([C@@H]1O)O)O[C@@H]1O[C@H](C(=O)O)[C@H]([C@@H]([C@H]1O)O)O,NaN,NaN,NaN,NaN,NaN,NaN,NaN,NaN,Nan,NaN,NaN,NaN,NaN,NaN,NaN,535,NaN,535,NaN,NaN
BBJUSJOGHYQDQX-AAEUAGOBSA-N,[O-]C(=O)[C@@H]1Cc2c(N1C=CC1=CC(=[NH+][C@@H](C1)C(=O)O)C(=O)O)cc(c(c2)O)O,[O-]C(=O)[C@@H]1Cc2c(N1C=CC1=CC(=[NH+][C@@H](C1)C(=O)O)C(=O)O)cc(c(c2)O)O,423.7,0.768615347,-1.6117,-7.955,9.77246,565.8794997969131,0.329127288,-2.2578,-8.1723,87.51962,-1.992,-8.911,9.93461,NaN,NaN,541,NaN,541,NaN,NaN
MPMOZJNSLITZSA-VSOFAJKKSA-N,OC[C@H]1O[C@@H](Oc2cc3C[C@H]([N+](=CC=C4C[C@H](NC(=C4)C(=O)O)C(=O)O)c3cc2O)C(=O)[O-])[C@@H]([C@H]([C@@H]1O)O)O[C@@H]1O[C@H](C(=O)O)[C@H]([C@@H]([C@H]1OC(=O)C=Cc1ccc(c(c1)OC)O)O)O,OC[C@H]1O[C@@H](Oc2cc3C[C@H]([N+](=CC=C4C[C@H](NC(=C4)C(=O)O)C(=O)O)c3cc2O)C(=O)[O-])[C@@H]([C@H]([C@@H]1O)O)O[C@@H]1O[C@H](C(=O)O)[C@H]([C@@H]([C@H]1OC(=O)C=Cc1ccc(c(c1)OC)O)O)O,NaN,NaN,NaN,NaN,NaN,NaN,NaN,NaN,Nan,NaN,NaN,NaN,NaN,NaN,NaN,320,NaN,320,NaN,NaN
YGLDJHLOOPYMED-DOHUEXTKSA-N,O=C(C=Cc1ccc(cc1)O)OC[C@H]1O[C@@H](Oc2cc3c(cc2O)C[C@H](N3C=CC2=CC(=[NH+][C@@H](C2)C(=O)O)C(=O)O)C(=O)[O-])[C@@H]([C@H]([C@@H]1O)O)O,O=C(C=Cc1ccc(cc1)O)OC[C@H]1O[C@@H](Oc2cc3c(cc2O)C[C@H](N3C=CC2=CC(=[NH+][C@@H](C2)C(=O)O)C(=O)O)C(=O)[O-])[C@@H]([C@H]([C@@H]1O)O)O,419.6,0.834499717,-1.4408,-7.8871,11.93429,449.7069220366473,0.172357784,-2.4077,-8.1771,193.88630,-1.923,-8.873,12.89821,482.80448991136853,0.5462615702,323,NaN,323,NaN,NaN
OZDMLJPVUZSCAP-UHFFFAOYSA-N,BI,BI,NaN,NaN,NaN,NaN,NaN,NaN,NaN,NaN,Nan,NaN,NaN,NaN,NaN,NaN,NaN,472,NaN,472,NaN,NaN
BJMSBDSSJHXMEM-UHFFFAOYSA-N,B[I][I]I,B[I][I]I,NaN,NaN,NaN,NaN,NaN,NaN,NaN,NaN,Nan,NaN,NaN,NaN,NaN,NaN,NaN,470,NaN,470,NaN,NaN
VRGSDHJXBVCQEL-UHFFFAOYSA-N,CNCc1ccc(cc1)c1ncnc2c1[nH]cn2,CNCc1ccc(cc1)c1ncnc2c1[nH]cn2,279.6,0.018205402,0.1152,-8.7347,7.36113,321.11939498964944,0.239102438,-0.5371,-8.2802,115.84832,-1.153,-9.416,7.66434,NaN,NaN,473,NaN,473,NaN,NaN
PBXJSIGKOQMBJH-UHFFFAOYSA-N,B[I]I,B[I]I,NaN,NaN,NaN,NaN,NaN,NaN,NaN,NaN,Nan,NaN,NaN,NaN,NaN,NaN,NaN,461,NaN,461,NaN,NaN
MDBKEKPEWKKAGF-GIUALZQNSA-N,O[C@H]1C[C@H](O)C(=C)C(=C1)CC=C1CCC[C@]2([C@H]1CC[C@@H]2C(CCCC(O)(C)C)CCCC(O)(C)C)C,O[C@H]1C[C@H](O)C(=C)C(=C1)CC=C1CCC[C@]2([C@H]1CC[C@@H]2C(CCCC(O)(C)C)CCCC(O)(C)C)C,NaN,NaN,NaN,NaN,NaN,NaN,NaN,NaN,Nan,NaN,NaN,NaN,NaN,NaN,NaN,458,NaN,458,NaN,NaN
RHUCNLIASPODHD-UHFFFAOYSA-N,B[V][I][I]I,B[V][I][I]I,NaN,NaN,NaN,NaN,NaN,NaN,NaN,NaN,Nan,NaN,NaN,NaN,NaN,NaN,NaN,472,NaN,472,NaN,NaN
ZOKMLIMFZKXXDK-UHFFFAOYSA-N,B[V],B[V],NaN,NaN,NaN,NaN,NaN,NaN,NaN,NaN,Nan,NaN,NaN,NaN,NaN,NaN,NaN,468,NaN,468,NaN,NaN
DDQHAPNDJYVJAO-UHFFFAOYSA-N,B[V][I]I,B[V][I]I,NaN,NaN,NaN,NaN,NaN,NaN,NaN,NaN,Nan,NaN,NaN,NaN,NaN,NaN,NaN,471,NaN,471,NaN,NaN
FNUPUYFWZXZMIE-LSDHHAIUSA-N,Oc1ccc2c(c1)O[C@@H]([C@H](C2=O)O)c1ccc(c(c1)O)O,Oc1ccc2c(c1)O[C@@H]([C@H](C2=O)O)c1ccc(c(c1)O)O,272.6,0.000361434,0.2475,-8.172,4.68387,355.2555828237927,9.892e-05,-0.9561,-8.4529,28.17208,-0.857,-8.966,1.32503,NaN,NaN,1348,NaN,1348,NaN,NaN
OORRQYZWSVJKSO-UHFFFAOYSA-N,c1ccc2Cc(c1)cccc2,c1ccc2Cc(c1)cccc2,332.7,0.012490338,0.4345,-7.9859,0.62798,334.0991603489724,0.107602302,-0.0859,-7.5129,0.16131,-0.456,-8.867,0.5142,NaN,NaN,660,NaN,660,NaN,CHCl3
DFMAXQKDIGCMTL-UHFFFAOYSA-N,COc1c2ccc(=O)oc2c(c2c1cco2)OC,COc1c2ccc(=O)oc2c(c2c1cco2)OC,309.0,0.042130818,0.1674,-7.9048,6.65232,350.63404526443344,0.018802765,-1.031,-8.3406,72.95204,-1.058,-8.507,6.54523,NaN,NaN,223.2,27542.28703338169,223.2,27542.28703338169,NaN
BGEBZHIAGXMEMV-UHFFFAOYSA-N,COc1c2ccc(=O)oc2cc2c1cco2,COc1c2ccc(=O)oc2cc2c1cco2,285.5,0.091165081,0.0116,-8.4403,6.39725,344.3049108733787,0.109052194,-1.0588,-8.4009,68.92112,-1.092,-9.113,6.75623,NaN,NaN,222.0,26915.348039269138,222.0,26915.348039269138,NaN
USLPJJIUMAKBIU-UHFFFAOYSA-N,O=c1ccc2c(o1)cc1c(c2OCC(=O)C(C)C)cco1,O=c1ccc2c(o1)cc1c(c2OCC(=O)C(C)C)cco1,290.5,0.051163121,-0.0005,-8.354,4.74423,346.8089465888214,0.107040815,-1.235,-8.5322,101.13327,-1.175,-9.18,4.36273,NaN,NaN,222.0,24547.089156850285,222.0,24547.089156850285,NaN
OLOOJGVNMBJLLR-UHFFFAOYSA-N,CC(=CCOc1c2occc2cc2c1oc(=O)cc2)C,CC(=CCOc1c2occc2cc2c1oc(=O)cc2)C,295.8,0.085137744,0.0457,-8.3004,5.19848,347.1002195002902,0.08539141,-1.0471,-8.366,61.25743,-1.09,-8.637,5.56457,NaN,NaN,217.9,28840.31503126606,217.9,28840.31503126606,NaN
BMLZFLQMBMYVHG-UHFFFAOYSA-N,COc1c2ccoc2c(c2c1ccc(=O)o2)OCC=C(C)C,COc1c2ccoc2c(c2c1ccc(=O)o2)OCC=C(C)C,298.1,0.055699758,0.046,-8.2096,4.97239,350.9317815043976,0.019771341,-0.998,-8.2992,95.61747,-0.92,-8.417,7.2389,NaN,NaN,223.1,28840.31503126606,223.1,28840.31503126606,NaN
IGWDEVSBEKYORK-UHFFFAOYSA-N,CC(=CCOc1c2ccoc2cc2c1ccc(=O)o2)C,CC(=CCOc1c2ccoc2cc2c1ccc(=O)o2)C,290.6,0.076582561,0.2415,-8.1325,8.34527,344.4962445276567,0.086314478,-1.0205,-8.3599,151.29229,-0.874,-8.895,8.62649,NaN,NaN,222.1,28183.82931264455,222.1,28183.82931264455,NaN
SPPTWHFVYKCNNK-UHFFFAOYSA-N,O=C(C(NC(=O)c1ccccc1)Cc1ccc(cc1)O)Nc1ccc(cc1)C(=O)O,O=C(C(NC(=O)c1ccccc1)Cc1ccc(cc1)O)Nc1ccc(cc1)C(=O)O,259.2,0.423212369,0.3848,-8.5519,4.96119,305.75634625278343,0.004627959,-0.7757,-8.6039,152.19999,-0.709,-9.153,6.53904,NaN,NaN,672,NaN,672,NaN,CHCl3
BYHCERXIVYSDMJ-UHFFFAOYSA-N,COc1cc2c(CCl)cc(=O)oc2c2c1cccc2,COc1cc2c(CCl)cc(=O)oc2c2c1cccc2,333.2,0.172573555,-0.2833,-7.91,5.16407,377.77025717703737,0.196647991,-1.2708,-8.0893,134.26062,-1.256,-8.693,6.23793,NaN,NaN,379,4786.300923226385,379,4786.300923226385,EtOH
KUIPFATZLKZKPG-UHFFFAOYSA-N,COc1cc2c(C)cc(=O)oc2c2c1cccc2,COc1cc2c(C)cc(=O)oc2c2c1cccc2,315.7,0.104204998,-0.049,-8.0409,5.09881,368.45229838188305,0.192642888,-1.0215,-8.0009,64.66462,-1.045,-8.516,5.88784,NaN,NaN,371,3715.352290971724,371,3715.352290971724,EtOH
OEWUUYYLYHFUCK-UHFFFAOYSA-N,O=c1cc(C)c2c(o1)c1ccccc1c(c2)O,O=c1cc(C)c2c(o1)c1ccccc1c(c2)O,324.3,0.143997359,-0.0143,-7.8345,5.69940,367.7964948249886,0.201590405,-1.0417,-8.027,38.98430,-1.138,-8.657,5.1011,NaN,NaN,380,5128.613839913648,380,5128.613839913648,EtOH
RDLOPBCVJOGKEC-UHFFFAOYSA-N,COc1cc2c(C=O)cc(=O)oc2c2c1cccc2,COc1cc2c(C=O)cc(=O)oc2c2c1cccc2,376.4,0.149607313,-1.0089,-7.9734,3.24793,442.8007085910845,0.177103003,-2.038,-8.076,80.96047,-1.593,-8.755,5.90402,NaN,NaN,377,5370.317963702527,377,5370.317963702527,EtOH
HBXWMCKJDBAVQE-UHFFFAOYSA-N,COc1cc2c(CO)cc(=O)oc2c2c1cccc2,COc1cc2c(CO)cc(=O)oc2c2c1cccc2,330.5,0.158222241,-0.1316,-7.8262,4.57652,374.00964828206236,0.201735131,-1.1137,-8.0008,68.21814,-1.246,-8.548,3.86995,NaN,NaN,365,4897.7881936844615,365,4897.7881936844615,EtOH
PALGSQQHIJYCEM-INIZCTEOSA-N,COc1cc2c(COC(=O)[C@@H](NC(=O)OCc3ccccc3)C)cc(=O)oc2c2c1cccc2,COc1cc2c(COC(=O)[C@@H](NC(=O)OCc3ccccc3)C)cc(=O)oc2c2c1cccc2,317.8,0.128236952,-0.1384,-8.0379,8.24361,371.09906736157933,0.185666946,-1.104,-8.0337,176.08984,-1.254,-8.623,4.25956,NaN,NaN,375,5248.074602497728,375,5248.074602497728,EtOH
KDWVSTLJTZEMRN-PPHPATTJSA-N,COc1cc2c(COC(=O)[C@@H](N)C)cc(=O)oc2c2c1cccc2.Br,COc1cc2c(COC(=O)[C@@H](N)C)cc(=O)oc2c2c1cccc2.Br,NaN,NaN,NaN,NaN,NaN,NaN,NaN,NaN,Nan,NaN,NaN,NaN,NaN,NaN,NaN,373,3090.295432513592,373,3090.295432513592,EtOH
FDKJERZLDAUNOL-UHFFFAOYSA-N,COC(=O)CCNC(=O)OCc1cc(=O)oc2c1cc(OC)c1c2cccc1,COC(=O)CCNC(=O)OCc1cc(=O)oc2c1cc(OC)c1c2cccc1,329.7,0.170568482,-0.0841,-7.8043,7.87520,373.1092338414194,0.195466544,-0.9648,-7.8649,89.34391,-1.166,-8.611,4.1225,NaN,NaN,374,5011.872336272725,374,5011.872336272725,EtOH
QFTGSVWTCXCTOW-UHFFFAOYSA-N,COc1cc2c(COC(=O)NCCC(=O)O)cc(=O)oc2c2c1cccc2,COc1cc2c(COC(=O)NCCC(=O)O)cc(=O)oc2c2c1cccc2,333.0,0.170156462,-0.1285,-7.7905,5.03907,372.10143579082734,0.201791164,-1.1185,-8.0287,141.51700,-1.197,-8.64,3.46071,NaN,NaN,373,3311.311214825911,373,3311.311214825911,EtOH
PPVKEFVHRLNXRC-UHFFFAOYSA-N,CCOC(=O)c1c2CCCn2c2c(c1=O)ccc(c2)C,CCOC(=O)c1c2CCCn2c2c(c1=O)ccc(c2)C,284.1,0.001193012,0.7031,-8.1133,6.04507,354.34180738926455,4.3859e-05,-0.6613,-8.6375,91.98968,-0.54,-8.795,6.96068,NaN,NaN,254,NaN,254,NaN,NaN
NKGPJODWTZCHGF-UHFFFAOYSA-N,OCC1OC(C(C1O)O)n1cnc2c1[nH]cnc2=S,OCC1OC(C(C1O)O)n1cnc2c1[nH]cnc2=S,399.8,5.322e-05,0.6675,-7.2476,16.53564,504.61619212659207,3.7648e-05,-0.6522,-7.61,101.18897,-0.824,-7.825,15.26737,NaN,NaN,320.0,NaN,232.0,NaN,NaN
FASYAUROBFRZPU-UHFFFAOYSA-N,Cc1c2ccccc2c2n(c1c1ccccc1)ccc2,Cc1c2ccccc2c2n(c1c1ccccc1)ccc2,305.1,0.038494012,0.9938,-7.3355,2.02793,355.052114563298,0.045262007,0.1008,-7.1548,21.10390,-0.477,-8.196,2.77973,NaN,NaN,254,NaN,254,NaN,NaN
LOBCDGHHHHGHFA-LBPRGKRZSA-N,CCOC(=O)C1=C(C)NC(=S)N[C@H]1c1cccc(c1)O,CCOC(=O)C1=C(C)NC(=S)N[C@H]1c1cccc(c1)O,290.0,0.014091749,0.2773,-8.3115,4.67505,402.54609871916773,7.058e-06,-1.059,-8.6053,141.10936,-0.949,-8.717,4.36357,NaN,NaN,262,NaN,262,NaN,NaN
FFINGMHYLMNLFY-UHFFFAOYSA-N,COC(=O)C1(CCN(CC1)CCc1ccccc1)NC(=O)OCc1ccccc1,COC(=O)C1(CCN(CC1)CCc1ccccc1)NC(=O)OCc1ccccc1,235.8,0.003375662,1.3923,-8.3641,3.31069,283.651792279807,0.001723499,0.2042,-8.647,138.63979,-0.057,-8.885,3.27274,NaN,NaN,254,NaN,254,NaN,NaN
HQRWWHIETAKIMO-UHFFFAOYSA-N,CCCC(c1ccccc1)O,C(c1ccccc1)O,231.9,0.002782842,1.8097,-8.8871,1.74210,267.9580687389316,0.004285643,0.7511,-8.78,31.61703,-0.153,-9.975,2.13293,NaN,NaN,254,NaN,254,NaN,NaN
VAQBNHFPKZLUBA-UHFFFAOYSA-N,ClCCCC(c1ccccc1)O,ClC(c1ccccc1)O,233.3,0.016021146,1.1605,-9.291,1.52471,268.946200445778,0.000275118,0.164,-9.0721,107.31885,-0.593,-10.214,3.37278,NaN,NaN,254,NaN,254,NaN,NaN
HAQYIWOAJSLKHP-UHFFFAOYSA-N,C=CCCC(c1ccccc1)O,C=C(c1ccccc1)O,246.5,0.170032614,1.0697,-8.3961,0.68906,273.87717783411455,0.002624579,0.2186,-8.4567,32.37720,-0.265,-9.316,0.36959,NaN,NaN,254,NaN,254,NaN,NaN
JMSUNAQVHOHLMX-UHFFFAOYSA-N,CC(C1CCCCC1)O,CC(C1CCCCC1)O,NaN,NaN,NaN,NaN,NaN,NaN,NaN,NaN,Nan,NaN,NaN,NaN,NaN,NaN,NaN,254,NaN,254,NaN,NaN
GDWRKZLROIFUML-UHFFFAOYSA-N,CC(CCc1ccccc1)O,CC(CCc1ccccc1)O,234.4,0.001121843,1.7052,-8.9651,1.32243,270.53065329588406,0.009345182,0.691,-8.7184,30.01822,0.368,-9.395,2.23276,NaN,NaN,254,NaN,254,NaN,NaN
ZFVFQRLBTBBQSK-UHFFFAOYSA-N,CC(CCCc1ccccc1)O,CC(CCCc1ccccc1)O,234.4,0.001455585,1.7295,-8.9311,1.53990,271.06296109642255,0.010235858,0.6921,-8.7055,25.62905,0.268,-9.482,1.60135,NaN,NaN,254,NaN,254,NaN,NaN
SJWFXCIHNDVPSH-UHFFFAOYSA-N,CCCCCCC(O)C,CCCCCCC(O)C,NaN,NaN,NaN,NaN,NaN,NaN,NaN,NaN,Nan,NaN,NaN,NaN,NaN,NaN,NaN,254,NaN,254,NaN,NaN
IHQXBTPBGCAQOA-UHFFFAOYSA-N,[CH-]1C=CC=C1.OC[C-]1C=CC=C1I.[Fe+2],[CH-]1C=CC=C1.OC[C-]1C=CC=C1I.[Fe+2],NaN,NaN,NaN,NaN,NaN,NaN,NaN,NaN,Nan,NaN,NaN,NaN,NaN,NaN,NaN,254,NaN,254,NaN,NaN
DYUQAZSOFZSPHD-UHFFFAOYSA-N,CCC(c1ccccc1)O,CCC(c1ccccc1)O,232.8,0.003108602,1.6223,-9.0913,1.28504,269.530866098921,0.005994373,0.6331,-8.8393,34.82638,0.067,-9.708,1.6366,NaN,NaN,254,NaN,254,NaN,NaN
SJWFXCIHNDVPSH-QMMMGPOBSA-N,CCCCCC[C@@H](O)C,CCCCCC[C@@H](O)C,NaN,NaN,NaN,NaN,NaN,NaN,NaN,NaN,Nan,NaN,NaN,NaN,NaN,NaN,NaN,254.0,NaN,230.0,NaN,NaN
VHHHXBCPVXONSD-DEOSSOPVSA-N,COc1ccc2c(c1)oc(=O)cc2COC(=O)[C@H](Cc1ccccc1)NC(=O)OCc1ccccc1,COc1ccc2c(c1)oc(=O)cc2COC(=O)[C@H](Cc1ccccc1)NC(=O)OCc1ccccc1,284.8,0.319312879,0.1038,-8.2786,4.32684,334.27931627259005,0.284158494,-1.0257,-8.5257,45.35846,-0.975,-9.198,4.25244,NaN,NaN,322,NaN,322,NaN,NaN
VRWATJYZYDPUSM-VWLOTQADSA-N,COc1ccc2c(c1)n(C)c(=O)cc2COC(=O)[C@H](Cc1ccccc1)NC(=O)OCc1ccccc1,COc1ccc2c(c1)n(C)c(=O)cc2COC(=O)[C@H](Cc1ccccc1)NC(=O)OCc1ccccc1,290.8,0.243940078,0.3288,-8.0877,6.16711,335.00188707242273,0.240086705,-0.8565,-8.4171,138.43289,-0.724,-8.722,3.48745,NaN,NaN,328,NaN,328,NaN,NaN
SDSPNYATVNEVFI-HNNXBMFYSA-N,COc1ccc2c(c1)c(COC(=O)[C@@H](NC(=O)OCc1ccccc1)C)cc(=O)n2C,COc1ccc2c(c1)c(COC(=O)[C@@H](NC(=O)OCc1ccccc1)C)cc(=O)n2C,315.4,0.168773603,0.1294,-7.909,6.75628,334.6402116207926,0.157642559,-0.8745,-8.4438,143.56432,-1.011,-8.499,5.12493,NaN,NaN,355,NaN,355,NaN,NaN
CBQUZTNHSIQMPR-DEOSSOPVSA-N,O=C(N[C@H](C(=O)OCc1cc(=S)oc2c1ccc(c2)C)Cc1ccccc1)OCc1ccccc1,O=C(N[C@H](C(=O)OCc1cc(=S)oc2c1ccc(c2)C)Cc1ccccc1)OCc1ccccc1,379.2,4.1766e-05,-0.5622,-8.2131,6.72296,500.3397837187395,0.000189407,-1.4467,-8.3197,143.10776,-1.415,-8.595,5.74856,NaN,NaN,377,NaN,377,NaN,NaN
FDTFXMHOCJXWBZ-DEOSSOPVSA-N,COc1ccc2c(c1)oc(=S)cc2COC(=O)[C@H](Cc1ccccc1)NC(=O)OCc1ccccc1,COc1ccc2c(c1)oc(=S)cc2COC(=O)[C@H](Cc1ccccc1)NC(=O)OCc1ccccc1,374.0,5.1223e-05,-0.4515,-8.0124,6.88941,500.94625618385317,0.000190638,-1.4849,-8.2953,119.33054,-1.419,-8.602,4.27095,NaN,NaN,395,NaN,395,NaN,NaN
VSQNYPZOCITTAI-VWLOTQADSA-N,COc1ccc2c(c1)n(C)c(=S)cc2COC(=O)[C@H](Cc1ccccc1)NC(=O)OCc1ccccc1,COc1ccc2c(c1)n(C)c(=S)cc2COC(=O)[C@H](Cc1ccccc1)NC(=O)OCc1ccccc1,368.0,0.004953723,-0.2736,-7.7948,6.88395,478.7034687471184,0.000578701,-1.2272,-8.0771,117.96639,-1.191,-8.077,7.87089,NaN,NaN,385,NaN,385,NaN,NaN
JQSRZLFNDFXIDB-DEOSSOPVSA-N,O=C(N[C@H](C(=O)OCc1cc(=S)n(c2c1cccc2)C)Cc1ccccc1)OCc1ccccc1,O=C(N[C@H](C(=O)OCc1cc(=S)n(c2c1cccc2)C)Cc1ccccc1)OCc1ccccc1,370.4,0.001247787,-0.2879,-7.8716,6.95474,488.89668140971474,0.000213648,-1.1715,-8.0798,114.75786,-1.295,-8.14,7.02148,NaN,NaN,384,NaN,384,NaN,NaN