inchikey,smi_pre,smi_post,lambda_sTDA (nm),f1_sTDA,lumo_dft,homo_dft,dmom_dft (D),lambda_z (nm),f1_z,lumo_z,homo_z,dmom_z (D),lumo_mopac,homo_mopac,dmom_mopac (D),lambda_tddft (nm),f1_tddft,lambda_exp_max (nm),epsilon_exp_max ,lambda_exp_min (nm),epsilon_exp_min ,solvent
UERYGOYPBXIFQV-UHFFFAOYSA-N,COc1cc2cc[nH]c3c2c(c1OC)ncc3,COc1cc2cc[nH]c3c2c(c1OC)ncc3,331.8,0.002293195,1.1301,-6.9216,3.75254,364.3379324287501,0.164900479,-0.3062,-7.1797,23.59011,-0.437,-7.793,3.89377,NaN,NaN,NaN,NaN,NaN,NaN,NaN
CAWZRIXWFRFUQB-IOSLPCCCSA-N,O[C@@H]1[C@@H](COP(=O)(CP(=O)(OP(=O)(O)O)O)O)O[C@H]([C@@H]1O)n1cnc2c1ncnc2N,O[C@@H]1[C@@H](COP(=O)(CP(=O)(OP(=O)(O)O)O)O)O[C@H]([C@@H]1O)n1cnc2c1ncnc2N,242.7,0.249889589,0.5236,-9.0951,7.43494,302.99168720797576,0.161642952,-0.8641,-8.4182,305.96175,-0.944,-9.222,3.17964,NaN,NaN,NaN,NaN,NaN,NaN,NaN
MNJVRJDLRVPLFE-UHFFFAOYSA-N,Clc1cnc(c(c1)c1ccc(cc1)S(=O)(=O)C)c1ccc(nc1)C,Clc1cnc(c(c1)c1ccc(cc1)S(=O)(=O)C)c1ccc(nc1)C,265.6,0.315221865,-0.063,-8.7987,4.45547,309.1104422974412,0.335949286,-0.7926,-8.5909,172.23981,-1.204,-9.745,5.06174,NaN,NaN,NaN,NaN,NaN,NaN,NaN
MNKSYXNFXOCWRQ-UHFFFAOYSA-N,Cc1sc(c(c1)C1=C(C(=O)CC1)c1ccccc1)C,Cc1sc(c(c1)C1=C(C(=O)CC1)c1ccccc1)C,294.2,0.002072778,0.3666,-8.1797,4.00008,350.63404526443344,0.001703809,-0.5338,-7.9054,42.05109,-0.628,-8.831,4.11607,NaN,NaN,308,NaN,308,NaN,NaN
LRMLSOLMQQUXQD-UHFFFAOYSA-N,N#CC(=Cc1ccc(s1)c1c2cc(ccc2c(c2c1ccc(c2)C(C)(C)C)N(c1cccc2c1cccc2)c1ccccc1)C(C)(C)C)C(=O)O,N#CC(=Cc1ccc(s1)c1c2cc(ccc2c(c2c1ccc(c2)C(C)(C)C)N(c1cccc2c1cccc2)c1ccccc1)C(C)(C)C)C(=O)O,407.2,0.596695138,-0.9321,-7.2515,6.56936,436.87173504405797,0.673945371,-1.5384,-7.0684,474.70807,-1.753,-8.026,4.87544,NaN,NaN,634.0,NaN,344.0,NaN,THF
ASKLLWLTALPIFR-UHFFFAOYSA-N,c1ccc(cc1)n1c2ccccc2c2c1ccc(c2)c1ccc(cc1)c1nc2c(s1)cccc2,c1ccc(cc1)n1c2ccccc2c2c1ccc(c2)c1ccc(cc1)c1nc2c(s1)cccc2,303.4,1.484491642,0.0382,-7.5546,3.17661,345.45611146699264,0.953310612,-0.6897,-7.6083,226.69653,-1.138,-8.258,2.32499,311.51024599693335,1.5502724722,448.0,NaN,344.0,NaN,NaN
XKEDVOKOSXFOAQ-UHFFFAOYSA-N,c1ccc(cc1)N(c1ccccc1)c1ccc(cc1)c1ccc(cc1)c1nc2c(n1c1ccccc1)cccc2,c1ccc(cc1)N(c1ccccc1)c1ccc(cc1)c1ccc(cc1)c1nc2c(n1c1ccccc1)cccc2,308.2,1.411324828,0.3372,-7.2065,3.94823,332.7541556776803,0.828056071,-0.2271,-7.2931,72.27522,-0.673,-8.021,4.14512,315.81087905764144,1.4437899211,355.0,NaN,353.0,NaN,Tetrahydrofuran
JHLXSTHUWPPNAH-UHFFFAOYSA-N,COc1ccc(cc1)N=Nc1c([nH]c2n1nc(c2N=Nc1ccccc1)C)c1ccccc1,COc1ccc(cc1)N=Nc1c([nH]c2n1nc(c2N=Nc1ccccc1)C)c1ccccc1,430.9,0.012919893,-0.6136,-7.2611,5.48558,532.807040848748,0.014413698,-1.396,-7.404,68.07593,-1.417,-8.371,3.38666,NaN,NaN,526.0,NaN,326.0,NaN,dioxane
OBWILOKKNDYPLX-HBMCJLEFSA-N,OC(=O)CCCNC(=O)c1ccc(cc1)[C@H]1CC[C@@H](C[C@@H]1O)c1ccccc1,OC(=O)CCCNC(=O)c1ccc(cc1)[C@H]1CC[C@@H](C[C@@H]1O)c1ccccc1,242.9,0.101281964,0.3047,-9.1378,9.43511,290.36112038759643,0.039022821,-0.7239,-8.8435,295.55413,-0.91,-9.716,8.58542,NaN,NaN,NaN,NaN,NaN,NaN,NaN
XOGPDSATLSAZEK-UHFFFAOYSA-N,Nc1ccc2c(c1)C(=O)c1c(C2=O)cccc1,Nc1ccc2c(c1)C(=O)c1c(C2=O)cccc1,345.1,0.003427371,-0.7924,-8.2599,2.92000,405.0447514064151,1.8734e-05,-1.7431,-8.5909,9.47603,-1.406,-8.883,2.70473,NaN,NaN,468.9,NaN,468.9,NaN,methanol
YIZBBJBWIJDRBA-UHFFFAOYSA-N,Cc1ccc(cc1)C#Cc1c(C#Cc2ccc(cc2)C)c(C#Cc2ccc(cc2)C)c(c(c1C#Cc1ccc(cc1)C)F)F,Cc1ccc(cc1)C#Cc1c(C#Cc2ccc(cc2)C)c(C#Cc2ccc(cc2)C)c(c(c1C#Cc1ccc(cc1)C)F)F,333.3,0.535176776,-0.4167,-7.6325,4.62739,401.5032331784445,0.152553228,-0.8561,-7.3726,263.52455,-1.365,-8.566,5.36599,NaN,NaN,424.0,NaN,309.0,NaN,NaN
NUJVQPYDLLAFQW-UHFFFAOYSA-N,O=S(=O)(C=Cc1ccc(cc1)N(c1ccccc1)c1ccccc1)C=Cc1ccc(cc1)N(c1ccccc1)c1ccccc1,O=S(=O)(C=Cc1ccc(cc1)N(c1ccccc1)c1ccccc1)C=Cc1ccc(cc1)N(c1ccccc1)c1ccccc1,333.0,1.542556362,-0.1977,-7.3433,6.76054,350.63404526443344,0.62712823,-0.6643,-7.5085,252.97652,-0.795,-8.144,6.571,344.3240196879567,1.5362113147,402.0,NaN,393.0,NaN,NaN
YVXMGASTLQZPMR-UHFFFAOYSA-N,Fc1c(C#Cc2ccccc2)c(C#Cc2ccccc2)c(c(c1F)C#Cc1ccccc1)C#Cc1ccccc1,Fc1c(C#Cc2ccccc2)c(C#Cc2ccccc2)c(c(c1F)C#Cc1ccccc1)C#Cc1ccccc1,330.8,0.530046058,-0.5836,-7.8431,3.68034,400.3364494849973,0.071156968,-0.9776,-7.5218,207.77043,-1.515,-8.822,3.7549,NaN,NaN,390.0,NaN,309.0,NaN,NaN
KYGZCKSPAKDVKC-UHFFFAOYSA-N,CCn1cc(C(=O)O)c(=O)c2c1cc1OCOc1c2,CCn1cc(C(=O)O)c(=O)c2c1cc1OCOc1c2,285.7,0.163563375,0.1407,-8.3769,10.27419,343.8275052842586,2.799e-05,-1.2027,-8.8793,98.82363,-1.111,-9.114,10.26026,NaN,NaN,490.0,NaN,390.0,NaN,NaN
SCIXFVQIQIDQDR-UHFFFAOYSA-N,N#CC(=Cc1ccc(cc1)N(c1ccccc1)c1ccccc1)c1ccc(cc1)c1ccc2c(c1)cccc2,N#CC(=Cc1ccc(cc1)N(c1ccccc1)c1ccccc1)c1ccc(cc1)c1ccc2c(c1)cccc2,339.4,0.937857701,-0.244,-7.3934,6.66260,343.06640399973344,0.240651161,-0.4121,-7.4182,99.77291,-0.94,-8.112,5.10279,359.520364812502,0.9276437508,412.0,NaN,308.0,NaN,Cyclohexane
DCOXHSWPTWJXNV-UHFFFAOYSA-N,c1csc(c1)c1ccc2c3c1ccc1c3c(cc2)ccc1,c1csc(c1)c1ccc2c3c1ccc1c3c(cc2)ccc1,340.1,0.465475705,-0.1494,-7.3922,0.54260,362.1033831936439,0.054925474,-0.6896,-7.284,122.61362,-1.195,-8.339,0.36777,NaN,NaN,347,NaN,347,NaN,chloroform
FPEWEMCORRESCO-UHFFFAOYSA-N,CCOC(=O)c1n2nc(ccc2c(c1C(=O)OC)C(=O)OC)c1ccc(cc1)Cl,CCOC(=O)c1n2nc(ccc2c(c1C(=O)OC)C(=O)OC)c1ccc(cc1)Cl,314.9,0.056739936,-0.2813,-8.5084,2.59716,379.38861201194516,0.222399126,-1.528,-8.5359,64.37865,-1.569,-9.557,3.73838,NaN,NaN,350.0,NaN,226.0,NaN,acetonitrile
DWBDKOXYNIZFIU-UHFFFAOYSA-N,c1ccc(nc1)c1nc2c([nH]1)c1cccnc1c1c2cccn1,c1ccc(nc1)c1nc2c([nH]1)c1cccnc1c1c2cccn1,300.3,0.398633513,0.0663,-7.8118,5.68436,396.8764353569259,0.61330491,-0.8084,-7.2724,24.58876,-1.231,-8.736,5.74754,NaN,NaN,303,54810,303,54810,NaN
OGEXNRREFBRAGK-UHFFFAOYSA-N,[O-][N+](=O)c1ccc2c(c1)oc(n2)c1cccc(n1)c1nc2c(o1)cc(cc2)[N+](=O)[O-],[O-][N+](=O)c1ccc2c(c1)oc(n2)c1cccc(n1)c1nc2c(o1)cc(cc2)[N+](=O)[O-],316.0,0.000153525,-1.0778,-9.1784,8.88806,420.2854183237412,0.002935933,-2.5432,-8.9734,163.87861,-2.271,-10.121,9.11556,NaN,NaN,355.0,NaN,282.0,NaN,NaN
KLEDUNQZRZMSTG-UHFFFAOYSA-N,CCOC(=O)c1cc2c(n1Cc1ccc(cc1)OC)c1[nH]c(=O)c(cc1CC2)S(=O)(=O)c1ccccc1,CCOC(=O)c1cc2c(n1Cc1ccc(cc1)OC)c1[nH]c(=O)c(cc1CC2)S(=O)(=O)c1ccccc1,350.0,0.820400487,-0.4621,-7.8767,8.06298,445.345540249654,0.59887507,-1.8355,-8.1759,187.76753,-1.261,-8.862,7.5918,367.8401264144053,0.6420400661,382,35577,382,35577,NaN
NLRKUCOJGROPHS-UHFFFAOYSA-N,COc1c(O)ccc2c1C(=O)OC2,COc1c(O)ccc2c1C(=O)OC2,271.0,0.093447846,0.465,-8.6522,3.29994,313.64583456995615,0.085903475,-0.8926,-8.9082,34.15054,-0.887,-9.18,2.16178,NaN,NaN,482.0,27799.999999999996,471.0,27799.999999999996,DMF
NDDFCKSKNSGRKE-UHFFFAOYSA-N,Clc1ccc(cc1)c1cc(n(n1)Cc1ccc(cc1)C(C)(C)C)c1nnc(o1)c1ccccc1,Clc1ccc(cc1)c1cc(n(n1)Cc1ccc(cc1)C(C)(C)C)c1nnc(o1)c1ccccc1,275.2,1.152802731,0.037,-8.2551,3.92350,367.5784121123737,0.651117581,-1.1763,-8.1366,362.07726,-1.234,-9.031,4.22457,277.8917720307501,0.9019766269,274,NaN,274,NaN,dichloromethane
KJHKTHWMRKYKJE-SUGCFTRWSA-N,O=C(N[C@H]([C@H](C[C@H](Cc1ccccc1)NC(=O)[C@@H](N1CCCNC1=O)C(C)C)O)Cc1ccccc1)COc1c(C)cccc1C,O=C(N[C@H]([C@H](C[C@H](Cc1ccccc1)NC(=O)[C@@H](N1CCCNC1=O)C(C)C)O)Cc1ccccc1)COc1c(C)cccc1C,236.2,0.002129121,1.4452,-8.4392,6.81921,289.3446870606853,0.000780929,0.2959,-8.3004,99.99547,-0.004,-9.129,5.71393,NaN,NaN,NaN,NaN,NaN,NaN,NaN
CWJAUGSFNRQHAZ-UHFFFAOYSA-N,c1cc2c(s1)c1sccc1cc2,c1cc2c(s1)c1sccc1cc2,276.0,0.062884199,0.7209,-8.095,1.16250,320.53825854576957,0.35641349,-0.3294,-7.8362,99.73516,-0.941,-8.395,1.3279,NaN,NaN,0,NaN,0,NaN,NaN
IJTMEIFZQQMHPP-UHFFFAOYSA-N,Clc1ccc(cc1)c1nnc(o1)c1ccn2c(c1c1ccccc1)nc1c2cccc1,Clc1ccc(cc1)c1nnc(o1)c1ccn2c(c1c1ccccc1)nc1c2cccc1,345.7,0.395458333,-0.5897,-7.9253,1.61827,417.73651753875896,0.454944845,-1.4166,-7.6699,262.95897,-1.647,-8.785,3.01946,NaN,NaN,341,NaN,341,NaN,NaN
YXVHIHDDYICEGH-UHFFFAOYSA-N,N#Cc1c(N)sc2c1c1ccccc1C2=O,N#Cc1c(N)sc2c1c1ccccc1C2=O,401.3,0.020288024,-0.7318,-8.1938,2.55870,499.3322529420204,0.043663511,-1.6318,-8.061,109.17804,-1.506,-8.79,2.90151,NaN,NaN,531.0,NaN,461.0,NaN,acetone
ZNVMAZIRPATCQV-UHFFFAOYSA-N,COc1ccccc1C=c1oc(=Cc2ccc(cc2)N(C)C)c2c1cccc2,COc1ccccc1C=c1oc(=Cc2ccc(cc2)N(C)C)c2c1cccc2,366.7,0.895653299,0.1075,-6.6284,2.62559,371.7667118605807,0.35031096,-0.4185,-7.1643,62.23154,-0.862,-7.785,1.08772,NaN,NaN,406,33600.0,406,33600.0,NaN
PVDCOTLFTXCQAX-QFIPXVFZSA-N,COC(=O)[C@@H](NS(=O)(=O)c1ccccc1[N+](=O)[O-])Cc1c([nH]c2c1cccc2)C(=C)c1ccccc1,COC(=O)[C@@H](NS(=O)(=O)c1ccccc1[N+](=O)[O-])Cc1c([nH]c2c1cccc2)C(=C)c1ccccc1,317.2,0.013092884,-0.3433,-8.0182,8.31973,443.7516048872715,0.005928623,-2.6078,-8.073,297.46823,-1.192,-8.405,5.76837,NaN,NaN,301,NaN,301,NaN,NaN
PJXPAUVCKXPDJL-UHFFFAOYSA-N,COc1ccc(cc1)C=Cc1ccc(cc1)N(c1ccc(cc1)C=Cc1ccc(cc1)OC)c1ccc(cc1)C=Cc1ccc(cc1)OC,COc1ccc(cc1)C=Cc1ccc(cc1)N(c1ccc(cc1)C=Cc1ccc(cc1)OC)c1ccc(cc1)C=Cc1ccc(cc1)OC,350.0,1.574846978,0.2753,-6.6431,1.98500,349.25126311409485,0.799632359,-0.1107,-6.9737,17.94581,-0.498,-7.757,2.10347,362.7071731832766,1.6209962979,396.0,NaN,393.0,NaN,NaN
VOSWRYRYGCAHQU-FMKGYKFTSA-N,CC(=O)O[C@@H]1[C@H](OC(=O)C)[C@H](O[C@H]1n1ccc(=S)[nH]c1=O)COC(=O)C,CC(=O)O[C@@H]1[C@H](OC(=O)C)[C@H](O[C@H]1n1ccc(=S)[nH]c1=O)COC(=O)C,351.2,0.000483896,0.0177,-8.4374,5.84077,485.64120017823603,0.000105757,-1.3366,-8.7676,107.19719,-1.153,-8.67,7.23501,NaN,NaN,550.0,20600,328.0,20600,NaN
XAJGWLORUHBFKM-UHFFFAOYSA-N,CC(C(=O)Nc1ccc(cc1)S(=O)(=O)N)Br,CC(C(=O)Nc1ccc(cc1)S(=O)(=O)N)Br,250.8,0.259015754,0.3952,-9.014,3.93903,305.68096253822404,0.003032688,-0.7899,-9.3941,111.63758,-0.857,-9.584,4.93461,NaN,NaN,266.0,NaN,266.0,NaN,NaN
CLSFYUFVFRIOBG-UHFFFAOYSA-N,COc1ccc(cc1)c1ccc(nc1)c1ccccn1,COc1ccc(cc1)c1ccc(nc1)c1ccccn1,280.6,0.97828192,0.2787,-7.958,1.75852,321.7026424636836,0.773034858,-0.4384,-7.8983,10.92972,-0.906,-8.828,1.82682,284.4587551260484,0.9754249666,339.0,NaN,309.0,NaN,NaN
XOKGZZJHMNTMNE-UHFFFAOYSA-N,c1ccc(cc1)N(c1ccc2c(c1)cccc2)c1ccc2c(c1)ccc(n2)Nc1ccc2c(n1)ccc(c2)N(c1ccc2c(c1)cccc2)c1ccccc1,c1ccc(cc1)N(c1ccc2c(c1)cccc2)c1ccc2c(c1)ccc(n2)Nc1ccc2c(n1)ccc(c2)N(c1ccc2c(c1)cccc2)c1ccccc1,345.3,0.768130547,0.1137,-6.8947,1.60972,377.19561425465065,0.483536517,-0.5108,-7.035,46.12887,-0.946,-7.782,1.33266,355.8367333732441,0.8798600693,505,NaN,505,NaN,NaN
OPPMNBYHIZCEGC-UHFFFAOYSA-N,c1ccc(cc1)c1ccc(nc1)c1ccccn1,c1ccc(cc1)c1ccc(nc1)c1ccccn1,275.8,0.827439546,0.1611,-8.3528,0.26338,319.2178125785367,0.737296686,-0.4456,-8.008,41.19781,-0.983,-9.216,0.28704,278.1411365067288,0.5946566549,322.0,NaN,298.0,NaN,NaN
LLGCOOKRWYCUGF-UHFFFAOYSA-N,COc1ccc(cc1)C(=O)CC(=O)c1cccc(n1)C(=O)CC(=O)c1ccc(cc1)OC,COc1ccc(cc1)C(=O)CC(=O)c1cccc(n1)C(=O)CC(=O)c1ccc(cc1)OC,315.4,0.003623547,-0.3305,-8.6595,5.77616,360.6288493470147,0.000751252,-1.2774,-8.9604,18.75618,-1.047,-9.261,0.82811,NaN,NaN,356,40738.02778041131,356,40738.02778041131,NaN
AJOXIADTZVUUGY-UHFFFAOYSA-N,O=Cc1ccc(s1)c1ccc(cc1)C#N,O=Cc1ccc(s1)c1ccc(cc1)C#N,306.2,0.00206426,-0.8815,-8.9934,4.60248,364.874038862577,0.003100615,-1.499,-8.6633,79.49098,-1.628,-9.56,4.01565,NaN,NaN,386.0,NaN,386.0,NaN,NaN
RVDFDZNHFAFZHI-UHFFFAOYSA-N,CCn1c2ccccc2c2c1nc1cc3c(=O)[nH][nH]c(=O)c3cc1n2,CCn1c2ccccc2c2c1nc1cc3c(=O)[nH][nH]c(=O)c3cc1n2,355.2,0.042940892,-0.8943,-8.3102,3.93381,371.87821957259644,0.026055142,-1.5383,-8.4929,200.07626,-1.724,-8.951,4.73462,NaN,NaN,408.0,NaN,299.0,NaN,DMF
JXIXENVJBAMVLV-UHFFFAOYSA-N,N#CC(=Cc1ccc(s1)c1ccc2c3c1cccc3c1c2c(c2ccccc2)c2c(c1c1ccccc1)cccc2)C(=O)O,N#CC(=Cc1ccc(s1)c1ccc2c3c1cccc3c1c2c(c2ccccc2)c2c(c1c1ccccc1)cccc2)C(=O)O,373.5,1.574927538,-1.1201,-7.628,7.45458,422.28950410593893,1.105381711,-1.6432,-7.4348,515.98379,-1.832,-8.56,4.72425,396.2169021131262,1.4236421707,445.0,NaN,302.0,NaN,NaN
WLDHLXVORFNCIW-UHFFFAOYSA-N,C#Cc1ccc(cc1)N(c1ccc(cc1)C#C)c1ccc(cc1)C=C1Cc2c(C1=O)cccc2,C#Cc1ccc(cc1)N(c1ccc(cc1)C#C)c1ccc(cc1)C=C1Cc2c(C1=O)cccc2,336.4,1.335167216,-0.5176,-7.4212,3.44487,376.05155718988067,0.008054311,-0.8345,-7.3518,55.07887,-0.854,-8.167,2.94673,360.00056042171735,0.0018632945,434.0,NaN,364.0,NaN,NaN
YRIFXDIUYCRVFB-UHFFFAOYSA-N,Cc1nn(c2c1c1nc3c(n1c(c2)c1ccccc1)cccc3)c1ccccc1,Cc1nn(c2c1c1nc3c(n1c(c2)c1ccccc1)cccc3)c1ccccc1,298.3,0.107481381,0.4092,-7.6776,4.96194,360.6288493470147,0.093515597,-0.5124,-7.5212,52.90059,-0.868,-8.481,5.5024,NaN,NaN,283.0,NaN,209.0,NaN,NaN
FZWUMZOMDVYHGN-UHFFFAOYSA-N,N#Cc1cnn2c1nc(C)c1c2OCC1,N#Cc1cnn2c1nc(C)c1c2OCC1,270.0,0.167322166,0.5173,-8.422,9.17339,362.3150157963286,0.121940403,-0.9145,-8.1845,71.27123,-1.107,-9.226,9.11963,NaN,NaN,318,NaN,318,NaN,NaN
ANJLZDZNDXJVRX-UHFFFAOYSA-N,CC1CCC(=CSC=Cc2ccc(cc2)C=CSC=C2CCC(CC2)C)CC1,CC1CCC(=CSC=Cc2ccc(cc2)C=CSC=C2CCC(CC2)C)CC1,322.4,1.655160101,0.3177,-7.2051,2.89121,284.2370435706182,0.017476124,0.3227,-8.0569,96.48162,-0.374,-7.826,3.20458,333.4252871029701,1.5849947308,350,NaN,350,NaN,CH 2 Cl 2
XJMNUVAEIAOKLM-OAHLLOKOSA-N,O[C@@H](c1ccccc1)C#Cc1ccc(cc1)C(F)(F)F,O[C@@H](c1ccccc1)C#Cc1ccc(cc1)C(F)(F)F,247.8,0.376597907,0.1547,-8.9781,1.64198,334.9113949365307,0.004851025,-0.4093,-8.5953,285.19056,-1.222,-9.803,2.1681,NaN,NaN,NaN,NaN,NaN,NaN,NaN
MFSHBVNNUTURFV-UHFFFAOYSA-N,NC(=O)c1cc2c(n1C)c1nc(ncc1CCC2)Nc1ccccc1,NC(=O)c1cc2c(n1C)c1nc(ncc1CCC2)Nc1ccccc1,297.4,0.403084305,0.3878,-7.6479,4.21812,376.85166688602936,0.503305003,-0.8354,-7.7311,42.32317,-0.672,-8.543,2.69215,NaN,NaN,NaN,NaN,NaN,NaN,NaN
OLHBSQZZPLZAPO-UHFFFAOYSA-N,O=C1C(=CC=C2OC(=CC(=C2)c2ccccc2)c2ccccc2)C(=O)c2c1csc2,O=C1C(=CC=C2OC(=CC(=C2)c2ccccc2)c2ccccc2)C(=O)c2c1csc2,436.3,1.093643258,-1.0675,-7.2974,6.81386,478.7034687471184,0.811647548,-1.5249,-7.4511,350.62905,-1.365,-8.485,4.96516,477.4682982602513,0.9316874076,619,NaN,619,NaN,dichloromethane
HYMWRBIUDMIJIG-UHFFFAOYSA-N,CCCCCCCCCN(c1ccccc1)N=Cc1ccc(cc1)N(c1ccc(cc1)C=C1SC(=S)N(C1=O)CC(=O)O)c1ccc(cc1)C,CN(c1ccccc1)N=Cc1ccc(cc1)N(c1ccc(cc1)C=C1SC(=S)N(C1=O)CC(=O)O)c1ccc(cc1)C,371.3,1.479304817,-0.7551,-7.1573,9.50654,464.0127185834718,0.000100159,-1.5069,-7.5347,682.21645,-1.51,-8.06,8.52801,399.54946024697705,1.3046561288,493.0,NaN,475.0,NaN,NaN
VYSALNDLOFEIQW-UHFFFAOYSA-N,c1ccc2c(c1)C=C(C2)c1ccc(cc1)c1nnc(o1)c1cccs1,c1ccc2c(c1)C=C(C2)c1ccc(cc1)c1nnc(o1)c1cccs1,334.3,1.654808459,-0.3369,-7.7151,3.49398,402.9385713536031,1.083690608,-1.1062,-7.5269,291.79856,-1.468,-8.721,4.0589,338.4309895161443,1.5068153494,351,NaN,351,NaN,NaN
DBWUNWLZBPJIGL-UHFFFAOYSA-N,COc1ccc(cc1)C#Cc1cc2c(C)cc(c3c2c2c1cc(cc2c(c3)C#Cc1ccc(cc1)OC)C(C)(C)C)C,COc1ccc(cc1)C#Cc1cc2c(C)cc(c3c2c2c1cc(cc2c(c3)C#Cc1ccc(cc1)OC)C(C)(C)C)C,358.2,0.608922202,-0.2538,-6.9294,1.67686,385.52300499223776,0.555345744,-0.7133,-6.8942,21.40544,-1.043,-7.886,0.36646,NaN,NaN,385,31622.776601683792,385,31622.776601683792,NaN
DRTQHJPVMGBUCF-XVFCMESISA-N,OC[C@H]1O[C@H]([C@@H]([C@@H]1O)O)n1ccc(=O)[nH]c1=O,OC[C@H]1O[C@H]([C@@H]([C@@H]1O)O)n1ccc(=O)[nH]c1=O,231.8,0.022622405,0.8967,-9.126,4.47301,303.13984940220945,0.000492651,-0.8977,-9.6558,49.51236,-0.855,-10.158,2.50493,NaN,NaN,262,NaN,262,NaN,NaN
CZZMAHFHLRRKQW-UHFFFAOYSA-N,CCC(C(=O)Cc1ccccc1)c1ccc(cc1)Cl,CCC(C(=O)Cc1ccccc1)c1ccc(cc1)Cl,267.6,0.003667524,1.048,-8.8272,2.21410,332.57563949974156,0.001993032,-0.2264,-9.0904,184.02299,-0.379,-9.57,2.50105,NaN,NaN,NaN,NaN,NaN,NaN,NaN
YDYTTZZBQVZTPY-UHFFFAOYSA-N,Clc1ccc2c(c1)c(C#Cc1ccccc1)c1c(c2C#Cc2ccccc2)cccc1,Clc1ccc2c(c1)c(C#Cc1ccccc1)c1c(c2C#Cc2ccccc2)cccc1,437.8,1.139819468,-1.0512,-7.1524,1.95423,451.17976130095946,0.678114384,-1.2126,-7.0257,189.68885,-1.731,-8.262,2.49006,455.12147789897745,0.865954646,514,NaN,514,NaN,NaN
ZALJRTWXVJZKEX-OAHLLOKOSA-N,Clc1ccc(cc1)C#C[C@H](c1ccccc1)O,Clc1ccc(cc1)C#C[C@H](c1ccccc1)O,251.7,0.383167613,0.5039,-8.7405,1.32162,333.47014095078987,0.007768105,-0.2267,-8.4882,194.91280,-0.835,-9.564,1.46135,NaN,NaN,NaN,NaN,NaN,NaN,NaN
NXEHLCHAKNZKDC-UHFFFAOYSA-N,CCOc1ccccc1c1c(C#N)c(N)nc(c1C#N)N,CCOc1ccccc1c1c(C#N)c(N)nc(c1C#N)N,273.4,0.200854381,0.3696,-8.3229,3.13927,321.78613653128383,0.174640074,-0.3968,-8.3779,72.15306,-0.524,-9.106,3.57013,NaN,NaN,338.0,NaN,335.0,NaN,THF
OKQQETKYNAUWIR-UHFFFAOYSA-N,COC(=O)c1c[nH]c2c1CCc1c2ccc(c1)Cl,COC(=O)c1c[nH]c2c1CCc1c2ccc(c1)Cl,277.9,0.504345484,0.8468,-7.7211,0.39103,348.27022024017884,0.355704124,-0.5656,-7.7816,100.25942,-0.651,-8.687,3.62053,NaN,NaN,NaN,NaN,NaN,NaN,NaN
KLSJUQHWUJVTOV-UHFFFAOYSA-N,c1ccc2c(c1)cc(cc2)c1ccc(cc1)c1ccc(cc1)c1ccc2c(c1)cccc2,c1ccc2c(c1)cc(cc2)c1ccc(cc1)c1ccc(cc1)c1ccc2c(c1)cccc2,292.9,0.56550392,0.2464,-7.8039,0.04088,318.3980441846524,0.008044759,-0.2252,-7.6392,2.79042,-0.719,-8.767,0.00728,NaN,NaN,398.0,NaN,271.0,NaN,NaN
CILZWWBVHOGQOC-UHFFFAOYSA-N,C=CCOc1ccc2c(c1)oc1c(c2c2ccccc2C(=O)NC2CC(C)(C)NC(C2)(C)C)ccc(=O)c1,C=CCOc1ccc2c(c1)oc1c(c2c2ccccc2C(=O)NC2CC(C)(C)NC(C2)(C)C)ccc(=O)c1,361.0,0.588594586,-0.8255,-7.8036,8.81385,406.1061199001103,0.771847282,-1.6864,-8.0223,138.23157,-1.639,-8.733,4.94999,NaN,NaN,486,NaN,486,NaN,NaN
DQTMURKYTLUUQK-UHFFFAOYSA-N,N#CC(=Cc1ccc(cc1F)C=Cc1ccc(cc1)N(c1cccc2c1cccc2)c1ccccc1)C(=O)O,N#CC(=Cc1ccc(cc1F)C=Cc1ccc(cc1)N(c1cccc2c1cccc2)c1ccccc1)C(=O)O,374.2,2.064123999,-1.1429,-7.3508,7.85376,357.61234036776364,0.982338196,-1.4934,-7.4183,501.01162,-1.608,-8.178,5.54462,400.4786750516472,1.8899873288,427.0,NaN,407.0,NaN,NaN
DVPKQZNZMWLKGM-UHFFFAOYSA-N,Cc1sc(c(c1)C(=O)C=Cc1ccc(cc1)N(c1ccccc1)c1ccccc1)C,Cc1sc(c(c1)C(=O)C=Cc1ccc(cc1)N(c1ccccc1)c1ccccc1)C,335.3,0.606317106,-0.2029,-7.3103,3.86401,380.43632527003274,0.037664201,-0.7873,-7.3801,253.28509,-0.77,-8.048,2.98336,NaN,NaN,413,NaN,413,NaN,NaN
LJGVSDBMRUUVMV-UHFFFAOYSA-N,O=c1[nH]c2ccccc2n(c1=O)C(=O)C,O=c1[nH]c2ccccc2n(c1=O)C(=O)C,282.2,0.003847085,0.1158,-8.7057,5.15341,373.6714840431093,0.001894418,-1.5333,-8.9508,76.39928,-0.864,-9.125,3.95756,NaN,NaN,250,NaN,250,NaN,NaN
XUIMZWHJUVXRFX-UHFFFAOYSA-N,COc1ccc(cc1)c1c([nH]c2c1cccc2)c1ccc(cc1)S(=O)(=O)N,COc1ccc(cc1)c1c([nH]c2c1cccc2)c1ccc(cc1)S(=O)(=O)N,304.9,0.504249594,0.1434,-7.5432,3.57110,359.1662757980987,0.409206028,-0.7342,-7.6364,291.09529,-0.98,-8.419,3.32005,NaN,NaN,237,NaN,237,NaN,NaN
ZENKTLRFSLVSNH-UHFFFAOYSA-N,CCOC(=O)c1c[nH]c2c(c1=O)cc(c(c2)c1nc2c(s1)cccc2)O,CCOC(=O)c1c[nH]c2c(c1=O)cc(c(c2)c1nc2c(s1)cccc2)O,338.8,0.380696578,-0.6494,-8.04,7.52033,366.1671541804597,0.009362152,-1.5414,-8.3543,27.33002,-1.728,-8.833,7.78109,NaN,NaN,638.0,NaN,442.0,NaN,Dioxane
WIIZWVCIJKGZOK-RKDXNWHRSA-N,OC[C@H]([C@@H](c1ccc(cc1)[N+](=O)[O-])O)NC(=O)C(Cl)Cl,OC[C@H]([C@@H](c1ccc(cc1)[N+](=O)[O-])O)NC(=O)C(Cl)Cl,315.8,4.8622e-05,-0.3631,-9.7557,8.03748,421.14197827956406,0.002078009,-2.3181,-9.5321,164.21477,-1.188,-10.349,8.04428,NaN,NaN,NaN,NaN,NaN,NaN,NaN
IRYZQMVGAXHKQM-UHFFFAOYSA-N,c1ccc(nc1)c1ccc2c(c1)Cc1c2ccc(c1)c1nc2c(s1)cccc2,c1ccc(nc1)c1ccc2c(c1)Cc1c2ccc(c1)c1nc2c(s1)cccc2,321.9,1.712558731,-0.2496,-7.7584,2.38441,363.8033990771821,1.171673555,-0.8783,-7.6258,149.36043,-1.321,-8.753,1.90241,324.684944768343,1.6920312582,272,53900.0,272,53900.0,NaN
FABAWROOYZBNPQ-UHFFFAOYSA-N,O=c1[nH]c2c(cc1S(=O)(=O)c1ccccc1)CCc1c2n(cc1)Cc1ccccc1,O=c1[nH]c2c(cc1S(=O)(=O)c1ccccc1)CCc1c2n(cc1)Cc1ccccc1,340.8,0.685812813,-0.1272,-7.7255,9.12292,441.38198079566985,0.482308549,-1.3732,-7.8499,217.28923,-1.0,-8.682,9.2983,NaN,NaN,375,33182,375,33182,NaN
HQLOQLDNIBRZDR-UHFFFAOYSA-N,Cc1ccc(cc1)C#Cc1c(oc(=O)c2c1ccs2)c1ccc(cc1)C,Cc1ccc(cc1)C#Cc1c(oc(=O)c2c1ccs2)c1ccc(cc1)C,317.1,0.444782946,-0.0984,-7.6888,5.99656,417.45521348654427,0.149835013,-1.2184,-7.5495,320.60665,-1.228,-8.378,4.92869,NaN,NaN,NaN,NaN,NaN,NaN,NaN
UMCJGVHIHZFEPA-UHFFFAOYSA-N,CCC(c1ccc(cc1)OC)C(=O)Cc1ccccc1,CCC(c1ccc(cc1)OC)C(=O)Cc1ccccc1,267.3,0.003857947,1.3421,-8.303,2.60225,331.68592403826557,0.002700597,0.064,-8.5434,40.81231,0.041,-8.914,2.29345,NaN,NaN,NaN,NaN,NaN,NaN,NaN
AFOMFTULJYJDLT-UHFFFAOYSA-N,CCOc1ccc(cc1)c1c2ccccc2c(c2c1cc(cc2)c1ccccc1)c1ccc2c(c1)cccc2,CCOc1ccc(cc1)c1c2ccccc2c(c2c1cc(cc2)c1ccccc1)c1ccc2c(c1)cccc2,377.6,0.324867854,-0.1316,-7.2048,1.55153,392.9768570697422,0.306964188,-0.6471,-7.0427,29.13752,-1.054,-8.147,1.78013,NaN,NaN,396,10445,396,10445,NaN
IVSZLXZYQVIEFR-UHFFFAOYSA-N,Cc1cccc(c1)C,Cc1cccc(c1)C,235.6,0.002311173,1.8569,-8.7385,0.36949,274.3013239059816,0.006462529,0.7872,-8.59,9.15601,0.422,-9.237,0.65458,NaN,NaN,288,2953.0,288,2953.0,n-hexane