inchikey,smi_pre,smi_post,lambda_sTDA (nm),f1_sTDA,lumo_dft,homo_dft,dmom_dft (D),lambda_z (nm),f1_z,lumo_z,homo_z,dmom_z (D),lumo_mopac,homo_mopac,dmom_mopac (D),lambda_tddft (nm),f1_tddft,lambda_exp_max (nm),epsilon_exp_max ,lambda_exp_min (nm),epsilon_exp_min ,solvent
FJDYNDYEBKEITD-UHFFFAOYSA-N,COc1ccc(cc1)C#Cc1ccc(cc1)c1c(F)c(F)c(c(c1F)F)c1ccc(cc1)C#Cc1ccc(cc1)OC,COc1ccc(cc1)C#Cc1ccc(cc1)c1c(F)c(F)c(c(c1F)F)c1ccc(cc1)C#Cc1ccc(cc1)OC,285.0,2.693369032,0.0821,-7.8485,2.00879,338.93985348688807,0.000826159,-0.7131,-7.8976,33.03359,-1.22,-8.817,1.79516,NaN,NaN,330,NaN,330,NaN,dichloromethane
GRZVJGRJFJOGJT-UHFFFAOYSA-N,COc1ccc(cc1)C(C(=O)C)Cl,COc1ccc(cc1)C(C(=O)C)Cl,262.7,0.014354824,1.0943,-8.558,4.01948,334.45966659159336,0.00226794,-0.2662,-8.8032,107.60184,-0.388,-9.238,3.9248,NaN,NaN,337,NaN,337,NaN,NaN
YRNMDWOVAZLMDY-UHFFFAOYSA-N,COC(=O)Cc1cc(=O)oc2c1ccc(c2)O,COC(=O)Cc1cc(=O)oc2c1ccc(c2)O,276.5,0.324128754,0.0662,-8.5125,2.74917,335.1830181278823,0.345982587,-1.3299,-8.7398,38.84285,-1.161,-9.379,2.37112,NaN,NaN,327,NaN,327,NaN,NaN
ODQZGGRDSFCLBJ-UHFFFAOYSA-N,COC(=O)C=c1sc2=NC3=C(C(n2c1=O)c1ccccc1Cl)CCCC3=Cc1ccccc1Cl,COC(=O)C=c1sc2=NC3=C(C(n2c1=O)c1ccccc1Cl)C3=Cc1ccccc1Cl,368.7,0.342516708,-0.7641,-7.3235,2.42885,486.4032891545848,0.166444959,-1.395,-7.01,132.06148,-1.884,-8.628,3.80744,NaN,NaN,313.70,NaN,313.70,NaN,NaN
NRXDNJLYPDPFGP-UHFFFAOYSA-N,O=C(c1ccccc1)c1ccc(cc1)OCC(=C)C(=O)O,O=C(c1ccccc1)c1ccc(cc1)OCC(=C)C(=O)O,301.1,0.003230736,0.2298,-8.7382,3.71584,362.52689592252534,0.001151301,-0.8151,-8.9762,142.85381,-0.637,-9.423,4.54689,NaN,NaN,289,NaN,289,NaN,DMF
LOJSAFCAWDTNFH-UHFFFAOYSA-N,CCN1c2ccc(cc2Sc2c1ccc(c2)C=C(C(=O)O)C#N)c1ccc(cc1)O,CCN1c2ccc(cc2Sc2c1ccc(c2)C=C(C(=O)O)C#N)c1ccc(cc1)O,373.4,0.528025109,-0.7586,-7.4456,6.79709,376.3940449468842,0.631135317,-1.4385,-7.8089,214.80708,-1.486,-7.944,5.32092,NaN,NaN,446.0,53250,299.0,53250,NaN
ONDFMKHCIZRLPK-UHFFFAOYSA-N,OC(=O)CN1C(=S)SC(=Cc2ccc(cc2)N(c2ccccc2)c2ccccc2)C1=O,OC(=O)CN1C(=S)SC(=Cc2ccc(cc2)N(c2ccccc2)c2ccccc2)C1=O,361.5,1.426636286,-0.8501,-7.5126,7.57485,464.3602936535718,8.8049e-05,-1.494,-7.6467,540.99786,-1.595,-8.294,6.19724,386.5084887126362,1.223956183,484.0,NaN,462.0,NaN,NaN
CPMAVRKEIYPOBG-UHFFFAOYSA-N,COc1ccc(cc1)C1(c2ccc(cc2)OC)c2ccc[n+](c2c2c1ccc[n+]2[O-])[O-],COc1ccc(cc1)C1(c2ccc(cc2)OC)c2ccc[n+](c2c2c1ccc[n+]2[O-])[O-],345.8,0.009922842,0.0056,-7.7464,6.29938,454.48753081196355,0.000225444,-1.4696,-8.2709,108.22436,-0.993,-8.377,4.89237,NaN,NaN,320,NaN,320,NaN,NaN
BTEAQQHGZDUUEF-UHFFFAOYSA-N,C[Si]1(c2ccccc2)C(=C(C(=C1C#C[Si](c1ccccc1)(C)C)c1ccccc1)c1ccccc1)C#C[Si](c1ccccc1)(C)C,C[Si]1(c2ccccc2)C(=C(C(=C1C#C[Si](c1ccccc1)(C)C)c1ccccc1)c1ccccc1)C#C[Si](c1ccccc1)(C)C,363.2,0.573392855,-0.6292,-7.7741,0.65553,381.48984124770357,0.37960683,-0.2147,-7.1121,47.89291,-0.834,-8.597,0.80192,NaN,NaN,210,NaN,210,NaN,THF
AIVBPKPRLHJYPE-GOEBONIOSA-N,CON=C(c1csc(n1)N)C(=O)N[C@@H]([C@H]1SCC(=C(N1)C(=O)O)C=Cc1scnc1C)C(=O)O,CON=C(c1csc(n1)N)C(=O)N[C@@H]([C@H]1SCC(=C(N1)C(=O)O)C=Cc1scnc1C)C(=O)O,289.4,0.297725993,0.3557,-8.0762,5.10974,346.0346034203284,0.100036832,-0.9681,-8.1761,103.99696,-0.955,-8.74,2.7249,NaN,NaN,NaN,NaN,NaN,NaN,NaN
BWEMOXPNZURRPH-UHFFFAOYSA-N,O=c1oc2ccccc2c(c1N=Nc1scc(n1)c1ccccc1)O,O=c1oc2ccccc2c(c1N=Nc1scc(n1)c1ccccc1)O,447.3,0.000293678,-1.1759,-8.0717,3.90343,555.9829524910479,0.000990446,-2.0878,-7.7878,155.25594,-1.829,-8.833,3.67607,NaN,NaN,293,NaN,293,NaN,Ethanol
MJIVRKPEXXHNJT-UHFFFAOYSA-N,OC(=O)c1ccnc(c1)C(=O)O,OC(=O)c1ccnc(c1)C(=O)O,269.1,0.006564122,-0.6871,-10.3081,3.77427,321.2025865427556,0.004410673,-1.7662,-10.1537,34.42012,-1.762,-11.122,3.74572,NaN,NaN,NaN,NaN,NaN,NaN,NaN
RAHGMXOHVFGEDR-UHFFFAOYSA-N,c1cnc2c(n1)cc1c(c2)nccn1,c1cnc2c(n1)cc1c(c2)nccn1,360.3,0.012917372,-1.1862,-8.7949,0.00007,367.360587868159,0.457593415,-1.48,-8.3203,0.00584,-1.94,-9.629,0.00052,NaN,NaN,870.0,NaN,650.0,NaN,NaN
QGZRSPOANNYDRL-UHFFFAOYSA-N,N#CC(=C1C=C(C=Cc2ccc(cc2)N(c2cccc3c2cccc3)c2ccc(cc2)c2nc3c(s2)cccc3)CC(C1)(C)C)C#N,N#CC(=C1C=C(C=Cc2ccc(cc2)N(c2cccc3c2cccc3)c2ccc(cc2)c2nc3c(s2)cccc3)CC(C1)(C)C)C#N,384.3,2.105981777,-1.2247,-7.4184,11.53326,394.8541350493747,1.188233059,-1.4639,-7.4874,290.05799,-1.651,-8.309,10.48187,415.5105499823702,1.8051903611,490.0,NaN,282.0,NaN,NaN
MKRKFSHHTKVRAR-UHFFFAOYSA-N,COc1cc2c(cc1O)CCN1C2Cc2ccc3c(c2C1)OCO3,COc1cc2c(cc1O)CCN1C2Cc2ccc3c(c2C1)OCO3,252.6,0.082699615,1.9124,-7.7563,2.21410,296.61291484570256,0.040239728,0.5338,-8.1209,14.37324,-0.021,-8.512,2.4332,NaN,NaN,NaN,NaN,NaN,NaN,NaN
BHHGXPLMPWCGHP-UHFFFAOYSA-N,NCCc1ccccc1,NCCc1ccccc1,231.0,0.001936905,1.6604,-8.8489,1.20102,270.0004320677345,0.008985014,0.6937,-8.737,8.67598,0.152,-9.354,1.77735,NaN,NaN,NaN,NaN,NaN,NaN,NaN
RNZFVFNPQNQIIU-UHFFFAOYSA-N,OC(=O)c1c(Cl)[nH]c2c1CCc1c2cccc1,OC(=O)c1c(Cl)[nH]c2c1CCc1c2cccc1,274.1,0.427466836,0.9261,-7.702,3.14473,357.92205082420224,0.043452352,-0.7199,-7.8185,226.00202,-0.557,-8.672,3.51485,NaN,NaN,NaN,NaN,NaN,NaN,NaN
LZRQLZDKUIJJOS-UHFFFAOYSA-N,c1ccc(cc1)c1nc2c(o1)cc(cc2)c1ccc2c(c1)oc(n2)c1ccccc1,c1ccc(cc1)c1nc2c(o1)cc(cc2)c1ccc2c(c1)oc(n2)c1ccccc1,302.6,1.687825148,-0.0677,-7.8407,2.34846,363.6966805676259,1.3096904,-0.7366,-7.4788,13.38808,-1.183,-8.918,1.53388,305.56041258191897,1.6959454361,330,56000,330,56000,heptane
DXOCCWKWAHOJGH-UHFFFAOYSA-N,Clc1ccccc1N=Nc1nc2c(s1)cc(cc2)[N+](=O)[O-],Clc1ccccc1N=Nc1nc2c(s1)cc(cc2)[N+](=O)[O-],507.8,0.017467668,-1.5943,-9.0703,6.53430,516.6008266895986,0.00063701,-2.443,-9.1803,145.52145,-2.054,-9.621,6.67197,NaN,NaN,352.0,NaN,340.0,NaN,Methanol
YQUVCSBJEUQKSH-UHFFFAOYSA-N,OC(=O)c1ccc(c(c1)O)O,OC(=O)c1ccc(c(c1)O)O,261.5,0.074004003,0.7917,-8.4772,3.01695,296.47106266261034,0.071715881,-0.8581,-9.0987,24.71583,-0.822,-9.403,1.06458,NaN,NaN,290.0,NaN,260.0,NaN,NaN
ZIEPALHMZIWLNY-UHFFFAOYSA-N,O=C1CSC(=Nc2c3ccccc3nc3c2cccc3)N1N(c1ccccc1)c1ccccc1,O=C1CSC(=Nc2c3ccccc3nc3c2cccc3)N1N(c1ccccc1)c1ccccc1,359.8,0.233991651,-0.3259,-7.6924,2.20189,368.45229838188305,0.224373075,-0.9355,-7.6289,145.15369,-1.348,-8.476,1.7778,NaN,NaN,368,NaN,368,NaN,NaN
OZGZXQGEFJVAFQ-UHFFFAOYSA-N,CC(c1ccccc1)OC1CCCCO1,CC(c1ccccc1)OC1CO1,232.4,8.5336e-05,1.4841,-9.2706,2.88628,269.530866098921,0.005867221,0.527,-8.9468,64.57414,0.063,-9.734,1.22923,NaN,NaN,NaN,NaN,NaN,NaN,NaN
QETYKHCFYSXSEV-UHFFFAOYSA-N,CCCCCCCCN1c2ccc(cc2C(C1=CC1=C([O-])C(=CC2=[N+](CCCCCCCC)c3c(C2(C)C)cc(cc3)c2ccccc2)C1=O)(C)C)c1ccccc1,CN1c2ccc(cc2C(C1=CC1=C([O-])C(=CC2=[N+](C)c3c(C2(C)C)cc(cc3)c2ccccc2)C1=O)(C)C)c1ccccc1,507.0,2.298114758,-0.882,-6.4219,0.14207,626.499233984354,0.833388679,-1.5507,-6.4367,43.48123,-1.89,-6.591,13.2759,550.111780145707,1.8787515735,658.5,NaN,658.5,NaN,chloroform
XKVDSNLABXITPK-UHFFFAOYSA-N,c1ccc(cc1)C1(C=Cc2c(O1)ccc1c2cccc1)c1ccc(cc1)Oc1cccc2c1cccc2,c1ccc(cc1)C1(C=Cc2c(O1)ccc1c2cccc1)c1ccc(cc1)Oc1cccc2c1cccc2,323.5,0.230412594,0.3244,-7.6732,0.96980,350.4358349505474,0.243195972,-0.3784,-7.4737,36.63704,-0.775,-8.409,1.19557,NaN,NaN,446,NaN,446,NaN,NaN
MWCZFBMIFZVAFV-UHFFFAOYSA-N,[N-]=[N+]=NCCCCCCOc1ccc2c(c1)oc(=O)cc2C,[N-]=[N+]=NCOc1ccc2c(c1)oc(=O)cc2C,275.8,0.333925546,0.1474,-8.526,5.45559,523.8031195838769,2.036e-06,-1.0325,-8.6387,108.53606,-1.025,-9.339,5.97683,NaN,NaN,321,14400,321,14400,NaN
KBOGUFFJCBPJEH-SQGSUPJISA-N,O=C1N[C@@H]2[C@H](N1)[C@@H](SC2)CCCCCOP(=O)(OC[C@H]1O[C@H]([C@@H]([C@@H]1O)O)n1cnc2c1ncnc2N)O,O=C1N[C@@H]2[C@H](N1)[C@@H](SC2)COP(=O)(OC[C@H]1O[C@H]([C@@H]([C@@H]1O)O)n1cnc2c1ncnc2N)O,242.0,0.219464956,0.5761,-8.9795,5.72419,305.8317671571378,0.16536458,-0.3539,-8.3987,106.16985,-0.737,-8.848,2.95832,NaN,NaN,470.0,NaN,386.0,NaN,NaN
IBGBGRVKPALMCQ-UHFFFAOYSA-N,O=Cc1ccc(c(c1)O)O,O=Cc1ccc(c(c1)O)O,296.2,4.3133e-05,0.3209,-8.6156,2.30812,360.3144388419171,2.33e-06,-0.9419,-9.0961,31.44781,-0.779,-9.296,1.17042,NaN,NaN,705,NaN,705,NaN,NaN
YAMZCVZQDCHJBM-UHFFFAOYSA-N,Cc1ccc2c(c1)c(=Cc1ccccc1)oc2=Cc1ccc(cc1)N(C)C,Cc1ccc2c(c1)c(=Cc1ccccc1)oc2=Cc1ccc(cc1)N(C)C,366.0,0.872134313,0.1339,-6.5888,1.47549,370.98802634800614,0.355783999,-0.3549,-7.0889,12.62329,-0.879,-7.743,1.77976,385.11583838367227,0.692428075,407,37700.0,407,37700.0,NaN
VMYWAEBQNNGMSC-UHFFFAOYSA-N,Clc1ccc(cc1)N=Nc1c(=O)[nH]c2n(c1N)c1ccccc1n2,Clc1ccc(cc1)N=Nc1c(=O)[nH]c2n(c1N)c1ccccc1n2,400.3,0.000156359,-0.5942,-8.1204,6.19068,521.1609853110705,0.000215788,-1.6427,-8.3062,226.18308,-1.515,-9.028,7.12398,NaN,NaN,400.0,NaN,383.0,NaN,Chloroform
DVRLRWJVTXYNDE-UHFFFAOYSA-N,CCCCC(OC(C(=O)c1ccccc1)O)CCC,C(OC(C(=O)c1ccccc1)O)C,301.5,0.000677242,-0.1115,-9.5499,3.10357,352.3279295410732,6.5148e-05,-0.7368,-9.5464,69.66789,-0.696,-10.148,3.30572,NaN,NaN,413.0,NaN,405.0,NaN,Ethanol
PENQWDOKMXZAHP-UHFFFAOYSA-N,CCn1c2ccc(cc2c2c1cccc2)c1ccc(s1)c1ccncn1,CCn1c2ccc(cc2c2c1cccc2)c1ccc(s1)c1ccncn1,313.8,1.04507364,-0.0728,-7.5145,5.50815,379.7372079801031,0.758279943,-0.7515,-7.4631,204.74108,-1.202,-8.351,5.6568,335.80031690926666,0.97780693,385.0,NaN,286.0,NaN,MeCN
SXSORQCKKLIJOL-UHFFFAOYSA-N,Cc1ccc(cc1)C=c1oc(=Cc2ccccc2)c2c1cccc2,Cc1ccc(cc1)C=c1oc(=Cc2ccccc2)c2c1cccc2,352.8,0.844513988,-0.1153,-7.1385,1.55101,354.84887923727433,0.47712733,-0.3654,-7.2974,44.41236,-1.051,-8.237,1.75851,366.123886750648,0.6598149397,373,25900.0,373,25900.0,NaN
XLCHJHSZPJYWOQ-UHFFFAOYSA-N,O=C(c1ccc(cc1)C(=O)c1ccccc1)OC1=CC=CC(=COc2ccc(cc2)C=Cc2ccc(cc2)[N+](=O)[O-])C1,O=C(c1ccc(cc1)C(=O)c1ccccc1)OC1=CC=CC(=COc2ccc(cc2)C=Cc2ccc(cc2)[N+](=O)[O-])C1,340.0,1.893023671,-0.8267,-7.6002,7.20344,422.00203677843314,0.02042734,-2.3808,-7.4712,242.49410,-1.475,-8.419,7.86628,NaN,NaN,374.0,NaN,363.0,NaN,THF
SCVJRXQHFJXZFZ-UHFFFAOYSA-N,OCC1OC(CC1O)n1cnc2c1[nH]c(N)nc2=S,OCC1OC(CC1O)n1cnc2c1[nH]c(N)nc2=S,379.4,4.3729e-05,1.1625,-6.9461,15.38819,494.55204788792844,3.3493e-05,-0.5211,-7.6294,131.16426,-0.651,-7.709,13.06803,NaN,NaN,470.0,NaN,381.0,NaN,NaN
VAYPSZCZHQNAPU-UHFFFAOYSA-N,Cc1nc(cc(n1)c1ccc(cc1)n1c2ccccc2c2c1cccc2)c1ccc(cc1)n1c2ccccc2c2c1cccc2,Cc1nc(cc(n1)c1ccc(cc1)n1c2ccccc2c2c1cccc2)c1ccc(cc1)n1c2ccccc2c2c1cccc2,295.7,1.224945811,-0.301,-7.7405,0.24142,327.9137752063043,0.911755825,-0.5212,-7.6919,35.54831,-1.063,-8.299,0.54341,310.0379920211039,1.2444835028,286,NaN,286,NaN,toluene
QNFWRVBPPVBITG-UHFFFAOYSA-N,[O-][N+](=O)c1ccccc1c1scc2c1OCCO2,[O-][N+](=O)c1ccccc1c1scc2c1OCCO2,321.0,0.064775937,-0.1797,-8.1853,2.63880,575.867154693468,0.003693458,-2.3232,-8.121,75.55265,-1.052,-8.482,3.81029,NaN,NaN,345,NaN,345,NaN,DCM
CDTCOQIRBQZBLM-UHFFFAOYSA-N,c1ccc(cc1)c1ccccc1c1ccc2c(c1)c(c1ccc3c(c1)cccc3)c1c(c2c2ccc3c(c2)cccc3)cccc1,c1ccc(cc1)c1ccccc1c1ccc2c(c1)c(c1ccc3c(c1)cccc3)c1c(c2c2ccc3c(c2)cccc3)cccc1,380.6,0.337064012,-0.1616,-7.1969,0.20688,405.70745551539153,0.337191192,-0.6717,-6.9265,13.26289,-1.078,-8.131,0.12404,NaN,NaN,456.0,NaN,426.0,NaN,NaN
RFSLIFDOSBQTHY-UHFFFAOYSA-N,CCCCCCn1c2cc(ccc2c2c1cc(cc2)C=C(C(=O)O)C#N)c1ccc(cc1)N(c1ccc(cc1)C(C)(C)C)c1ccc(cc1)C(C)(C)C,Cn1c2cc(ccc2c2c1cc(cc2)C=C(C(=O)O)C#N)c1ccc(cc1)N(c1ccc(cc1)C(C)(C)C)c1ccc(cc1)C(C)(C)C,349.4,0.498305779,-0.9069,-7.0867,5.75229,372.6606504523705,0.77965887,-1.3682,-7.1226,682.94121,-1.5,-7.827,4.24598,NaN,NaN,312,35800.0,312,35800.0,NaN
RLDJPVOPEYBWFF-UHFFFAOYSA-N,O=C1C(=Cc2ccccc2)N=C(N1Cc1ccccc1)c1ccccc1,O=C1C(=Cc2ccccc2)N=C(N1Cc1ccccc1)c1ccccc1,327.2,0.971140719,-0.5105,-7.9724,3.50724,345.0715235332693,0.80060553,-0.9439,-8.0366,60.84724,-1.164,-8.872,3.02994,350.5547189811113,0.72679321,375.0,NaN,375.0,NaN,NaN
NSCOPASYOISSAC-UHFFFAOYSA-N,Nc1ccc(cc1)C1=C2C=CC(=N2)C(=c2ccc(=C(C3=NC(=C(c4[nH]c1cc4)c1ccccc1)C=C3)c1ccccc1)[nH]2)c1ccccc1,Nc1ccc(cc1)C1=C2C=CC(=N2)C(=c2ccc(=C(C3=NC(=C(c4[nH]c1cc4)c1ccccc1)C=C3)c1ccccc1)[nH]2)c1ccccc1,638.3,0.010248758,-0.9986,-6.6331,2.37068,607.1704133472266,0.009805648,-1.2664,-6.7012,36.45638,-1.631,-7.838,3.03777,NaN,NaN,420,488600.0,420,488600.0,NaN
LISVJUGUOFZOIA-UHFFFAOYSA-N,[O-][N+](=O)c1ccc2c(c1)cc1c(n2)cc(cc1)Nc1nc2c(s1)cccc2,[O-][N+](=O)c1ccc2c(c1)cc1c(n2)cc(cc1)Nc1nc2c(s1)cccc2,358.3,0.222056634,-1.0764,-7.9999,7.39311,423.73273549386073,0.238245942,-2.4819,-8.1281,71.35993,-2.035,-8.854,7.48406,NaN,NaN,437,NaN,437,NaN,NaN
ICVKEWHBUKYUQQ-UHFFFAOYSA-N,COc1ccc2c(c1)c(cc(=O)o2)c1cc(nc(c1)c1cc2ccccc2oc1=O)c1cc2ccccc2oc1=O,COc1ccc2c(c1)c(cc(=O)o2)c1cc(nc(c1)c1cc2ccccc2oc1=O)c1cc2ccccc2oc1=O,308.3,0.719196177,-0.7403,-8.109,12.08498,365.6272438970913,0.567328928,-1.4979,-8.3241,170.77418,-1.676,-8.715,11.44248,NaN,NaN,355,NaN,355,NaN,chlorobenzene
YBUXKQSCKVQATK-UHFFFAOYSA-N,Nc1ccc(cc1)S(=O)(=O)Nc1ccccc1,Nc1ccc(cc1)S(=O)(=O)Nc1ccccc1,255.9,0.018005269,1.0762,-8.38,7.65408,288.67100909314007,0.015223889,-0.2701,-8.7224,133.82008,-0.369,-8.577,7.43362,NaN,NaN,202,NaN,202,NaN,NaN
LJHVXGNAMQGZTI-UHFFFAOYSA-N,S=c1sc(c(s1)c1c(C)sc2c1cccc2)c1c(C)sc2c1cccc2,S=c1sc(c(s1)c1c(C)sc2c1cccc2)c1c(C)sc2c1cccc2,370.2,0.000795875,-0.0148,-7.9074,4.95022,508.75748217276845,7.8e-08,-1.0272,-8.0684,235.25722,-1.411,-8.285,3.42133,NaN,NaN,580.0,NaN,372.0,NaN,NaN
WMMQGCCIUQJVED-UHFFFAOYSA-N,CC(C1=CC(=CC=Cc2cnc3c(n2)cccc3)C=C(O1)C(C)(C)C)(C)C,CC(C1=CC(=CC=Cc2cnc3c(n2)cccc3)C=C(O1)C(C)(C)C)(C)C,375.8,1.418846342,-0.3349,-6.8235,5.31449,433.2082404105648,1.058488552,-1.0002,-6.9754,162.69700,-0.964,-7.875,6.32004,414.24722021129116,1.2056103801,470.0,NaN,353.0,NaN,dichloromethane
JFDNDHPGFBNCDT-UHFFFAOYSA-N,CCCCOc1c(OCCCC)c2sc1C(=C1C=CC(=N1)C(=c1ccc(=C(C3=NC(=C2c2ccccc2)C=C3)c2ccccc2)[nH]1)c1ccccc1)c1ccccc1,COc1c(OC)c2sc1C(=C1C=CC(=N1)C(=c1ccc(=C(C3=NC(=C2c2ccccc2)C=C3)c2ccccc2)[nH]1)c1ccccc1)c1ccccc1,641.5,0.162172197,-1.1824,-6.4731,1.47779,550.5515026887374,0.242025816,-1.2895,-6.7855,123.34427,-1.653,-7.743,2.02678,NaN,NaN,678.0,229086.76527677747,431.0,3019.9517204020162,NaN
WXYMQXVINBWILJ-UHFFFAOYSA-N,Fc1c(F)c(F)c(c2c1cc1c(nn(c1n2)c1ccccc1)c1ccccc1)F,Fc1c(F)c(F)c(c2c1cc1c(nn(c1n2)c1ccccc1)c1ccccc1)F,357.2,0.206527943,-0.7918,-7.9994,3.07500,395.9891357569584,0.184419178,-1.7937,-8.1228,340.41403,-1.939,-8.787,3.5503,NaN,NaN,415.0,NaN,0.0,NaN,Toluene
YYRKLTLNIKTYEQ-NFBKMPQASA-N,O=c1ccn(c(=O)[nH]1)C1=C(c2ccccc2)[C@@H]([C@H](O1)CO[Si](C(C)(C)C)(C)C)O[Si](C(C)(C)C)(C)C,O=c1ccn(c(=O)[nH]1)C1=C(c2ccccc2)[C@@H]([C@H](O1)CO[Si](C(C)(C)C)(C)C)O[Si](C(C)(C)C)(C)C,237.1,0.182985792,0.7863,-8.6673,4.48848,303.5852066736133,0.005620884,-0.7121,-8.3893,274.64916,-0.556,-8.921,4.88442,NaN,NaN,253,NaN,253,NaN,MeOH
IRDLRSKVGGIGNN-UHFFFAOYSA-N,CCn1c2ccc(cc2c2c1cccc2)c1c2ccccc2c(c2c1cc(cc2)C(C)(C)C)c1ccc2c(c1)c1ccccc1n2CC,CCn1c2ccc(cc2c2c1cccc2)c1c2ccccc2c(c2c1cc(cc2)C(C)(C)C)c1ccc2c(c1)c1ccccc1n2CC,380.8,0.431669035,0.1137,-7.0386,2.57417,397.64014883099316,0.388024075,-0.5107,-6.8978,81.18701,-0.826,-7.934,2.81026,NaN,NaN,455.0,NaN,354.0,NaN,NaN
KJMFQJFNQYWQAV-UHFFFAOYSA-N,c1ncc2c(n1)c1[nH]cnc1cc2,c1ncc2c(n1)c1[nH]cnc1cc2,285.0,0.012334096,0.1558,-8.6855,1.42332,331.5085518863734,0.021494495,-0.6328,-8.1487,22.39576,-1.145,-9.384,1.24639,NaN,NaN,482.0,NaN,425.0,NaN,NaN
MXCHQPGUHWKFJS-UHFFFAOYSA-N,CCCCCCc1ccc(cc1)c1cc2c(n1c1ccc3c(c1)C(C)(C)c1c3cccc1)ccc(c2)c1ccc(s1)c1ccc(s1)C=C(C(=O)O)C#N,Cc1ccc(cc1)c1cc2c(n1c1ccc3c(c1)C(C)(C)c1c3cccc1)ccc(c2)c1ccc(s1)c1ccc(s1)C=C(C(=O)O)C#N,382.8,2.198969388,-1.0744,-7.5114,11.15106,479.2585945322909,1.119823503,-1.7234,-7.3911,959.36807,-1.929,-8.419,9.28489,423.53007108437333,1.7264860358,431,NaN,431,NaN,NaN
UAIUNKRWKOVEES-UHFFFAOYSA-N,Cc1cc(cc(c1N)C)c1cc(C)c(c(c1)C)N,Cc1cc(cc(c1N)C)c1cc(C)c(c(c1)C)N,261.5,0.02297955,1.8053,-6.9157,0.52781,304.0318744617549,0.037404794,0.5831,-7.4017,0.54440,0.313,-7.811,1.18323,NaN,NaN,543,NaN,543,NaN,NaN
UFCLZKMFXSILNL-BSONOGBHSA-N,O=C(O[C@@H]1[C@H](O)C[C@](CC1OC(=O)C=Cc1ccc(c(c1)O)O)(O)C(=O)O)C=Cc1ccc(c(c1)O)O,O=C(O[C@@H]1[C@H](O)C[C@](CC1OC(=O)C=Cc1ccc(c(c1)O)O)(O)C(=O)O)C=Cc1ccc(c(c1)O)O,285.0,0.014532718,-0.0029,-8.1456,6.81998,315.24077906306553,0.118059486,-1.1567,-8.5774,86.68737,-1.15,-9.013,7.98479,NaN,NaN,NaN,NaN,NaN,NaN,NaN
VKVFTTURXPFGAZ-UHFFFAOYSA-N,CCCn1c(N=Nc2nc3c(s2)cccc3)ccc1c1cccs1,CCCn1c(N=Nc2nc3c(s2)cccc3)ccc1c1cccs1,446.8,0.000640346,-0.922,-7.6081,2.70197,544.0289530737326,0.000943237,-1.7316,-7.4916,103.45306,-1.578,-8.645,2.53922,NaN,NaN,519.0,NaN,419.0,NaN,DMSO
AXGXRSZEYYRDNQ-UHFFFAOYSA-N,OCCN(c1ccc(cc1)N=Nc1ccc(cc1)C=O)CC,OCCN(c1ccc(cc1)N=Nc1ccc(cc1)C=O)CC,440.2,0.001275298,-0.7833,-7.6389,6.23483,517.4632654653742,0.012663471,-1.3287,-8.0375,118.47063,-1.138,-8.472,5.64573,NaN,NaN,484,NaN,484,NaN,NaN
RRRCKIRSVQAAAS-UHFFFAOYSA-N,Oc1cc(ccc1O)C1(OS(=O)(=O)c2c1cccc2)c1ccc(c(c1)O)O,Oc1cc(ccc1O)C1(OS(=O)(=O)c2c1cccc2)c1ccc(c(c1)O)O,249.8,0.085836465,0.6617,-8.3549,5.83975,292.89912214860306,0.025663002,-0.6566,-8.6114,116.31702,-0.961,-9.053,3.46699,NaN,NaN,420,NaN,420,NaN,NaN
WOZVHXUHUFLZGK-UHFFFAOYSA-N,COC(=O)c1ccc(cc1)C(=O)OC,COC(=O)c1ccc(cc1)C(=O)OC,253.0,0.027890994,-0.1285,-9.7569,3.68142,290.8379038365087,0.074755145,-1.4225,-9.8298,18.21218,-1.252,-10.433,0.00177,NaN,NaN,240,NaN,240,NaN,NaN
DHCSGMZZZPBMBA-UHFFFAOYSA-N,C=COCCN(c1ccccc1)N=Cc1ccc2c(c1)c1ccccc1n2CC,C=COCCN(c1ccccc1)N=Cc1ccc2c(c1)c1ccccc1n2CC,306.2,0.327696677,0.9406,-7.0028,1.11500,331.3313693359264,0.348841059,-0.1706,-7.5482,78.15745,-0.281,-7.993,2.18368,NaN,NaN,395,NaN,395,NaN,NaN
AZYLNDHKHAUPLM-UHFFFAOYSA-N,COc1ccc2c(c1)n(C)c1c([n+]2[O-])c(=O)nc(n1)c1ccccc1,COc1ccc2c(c1)n(C)c1c([n+]2[O-])c(=O)nc(n1)c1ccccc1,455.5,0.000118713,-1.2509,-8.5519,11.55955,538.8274593894118,0.000129678,-2.4744,-8.7904,125.59923,-1.559,-9.285,11.46197,NaN,NaN,522.0,24547.089156850285,293.0,10471.285480508985,NaN
WGHQFHLEWMXSEQ-UHFFFAOYSA-N,CCCCCCCCCCCCOc1ccc(c(c1)O)N=Cc1ccc(cc1)OC(=O)c1ccc2c(c1)nc(c(n2)c1ccc(c(c1)OCCCCCCCCCCCC)OCCCCCCCCCCCC)c1ccc(c(c1)OCCCCCCCCCCCC)OCCCCCCCCCCCC,COc1ccc(c(c1)O)N=Cc1ccc(cc1)OC(=O)c1ccc2c(c1)nc(c(n2)c1ccc(c(c1)OC)OC)c1ccc(c(c1)OC)OC,329.9,0.196168676,-0.6551,-7.5528,3.35162,378.46214409494405,0.049327724,-1.427,-7.6485,56.56308,-1.507,-8.46,5.723,NaN,NaN,379,NaN,379,NaN,NaN
APBCJIKZBVZBMA-UHFFFAOYSA-N,Cc1ccc(cc1)c1nn(c(c1N=Nc1ccc(cc1)S(=O)(=O)O)Nc1nc(Cl)nc(n1)Cl)c1ccccc1,Cc1ccc(cc1)c1nn(c(c1N=Nc1ccc(cc1)S(=O)(=O)O)Nc1nc(Cl)nc(n1)Cl)c1ccccc1,418.3,0.002991302,-1.2124,-8.4004,5.10967,519.4143209279583,0.000415929,-1.8855,-8.3327,489.48141,-1.873,-9.128,5.24228,NaN,NaN,376,NaN,376,NaN,NaN
ZUVSECQEEROXOD-UHFFFAOYSA-N,Cc1ccc(cc1)C1C2=C(Oc3c1c1cc(OCCCNCCCNc4ccnc5c4ccc(c5)Cl)ccc1cc3)CC(CC2=O)(C)C,Cc1ccc(cc1)C1C2=C(Oc3c1c1cc(OCCCNCCCNc4ccnc5c4ccc(c5)Cl)ccc1cc3)CC(CC2=O)(C)C,295.9,0.1176107,0.3345,-7.8812,7.23568,352.728871708403,0.000392972,-0.6303,-7.9651,255.47358,-0.726,-8.459,11.2341,NaN,NaN,331,11000.0,331,11000.0,methanol
NHMCODUXQNHSNO-UHFFFAOYSA-N,CCCCCCCCCCCCn1c(=S)n(c(c1P(=O)(c1ccccc1)c1ccccc1)P(=O)(c1ccccc1)c1ccccc1)C,Cn1c(=S)n(c(c1P(=O)(c1ccccc1)c1ccccc1)P(=O)(c1ccccc1)c1ccccc1)C,271.7,0.173328983,0.4732,-7.4854,7.52594,387.2086146330533,8.4192e-05,-0.1927,-8.0767,182.23856,-0.514,-7.727,8.23719,NaN,NaN,269,NaN,269,NaN,NaN
VAHAOGAYXXKULC-UHFFFAOYSA-N,COC(=O)CNP(=O)(C(C(=O)O)Cc1cccnc1)NCC(=O)OC,COC(=O)CNP(=O)(C(C(=O)O)Cc1cccnc1)NCC(=O)OC,252.9,0.009018938,0.9802,-9.525,2.09593,294.14993690510954,0.003681822,-0.4063,-9.196,100.55736,-0.421,-9.171,2.46678,NaN,NaN,322,NaN,322,NaN,NaN
XWZXVCYCDGYJGZ-UHFFFAOYSA-N,COc1ccc(cc1)Cc1nnc2n1nc(s2)c1ccc(cc1)c1ccccc1,COc1ccc(cc1)Cc1nnc2n1nc(s2)c1ccc(cc1)c1ccccc1,280.4,0.891338703,-0.2887,-8.2936,6.26581,292.41556227713124,0.641513563,-0.6143,-8.1959,212.31066,-1.305,-8.891,6.17762,284.916336541133,1.0508599573,300.0,193000.0,237.0,150000.0,DMSO
UEWPKBWGIJLHCR-UHFFFAOYSA-N,Ic1ccc(cc1)N=Nc1nc2c(s1)cc(cc2)[N+](=O)[O-],Ic1ccc(cc1)N=Nc1nc2c(s1)cc(cc2)[N+](=O)[O-],476.1,0.00034224,-1.729,-8.9192,4.52296,NaN,NaN,NaN,Nan,NaN,-2.229,-9.239,4.4584,NaN,NaN,371.0,NaN,366.0,NaN,Methanol
UBXYRGXREVHTNY-UHFFFAOYSA-N,Fc1ccc(cc1)c1[nH]c2c(c1c1ccc(cc1)S(=O)(=O)C)cccc2,Fc1ccc(cc1)c1[nH]c2c(c1c1ccc(cc1)S(=O)(=O)C)cccc2,287.6,0.412725041,0.2578,-7.8633,6.88829,337.8316032847511,0.349681424,-0.6172,-7.8181,214.91554,-0.901,-8.724,7.13553,NaN,NaN,238,NaN,238,NaN,NaN
CPUQNLYLSCQELT-UHFFFAOYSA-N,O=C1CC(C)(C)CC(=O)C1=CCC(c1ccc(cc1)N1CCOCC1)c1ccc(cc1)N1CCOCC1,O=C1CC(C)(C)CC(=O)C1=CCC(c1ccc(cc1)N1CCOCC1)c1ccc(cc1)N1CCOCC1,330.5,7.9333e-05,-0.1453,-7.6018,1.96452,364.0170240913202,0.000151747,-0.9466,-8.0692,56.48287,-0.572,-8.288,2.26442,NaN,NaN,NaN,NaN,NaN,NaN,NaN