inchikey,smi_pre,smi_post,lambda_sTDA (nm),f1_sTDA,lumo_dft,homo_dft,dmom_dft (D),lambda_z (nm),f1_z,lumo_z,homo_z,dmom_z (D),lumo_mopac,homo_mopac,dmom_mopac (D),lambda_tddft (nm),f1_tddft,lambda_exp_max (nm),epsilon_exp_max ,lambda_exp_min (nm),epsilon_exp_min ,solvent
YHCKKPLFMHYZKY-UHFFFAOYSA-N,O=C1CSC(=NN(c2ccccc2)c2ccccc2)N1c1c2ccccc2nc2c1cccc2,O=C1CSC(=NN(c2ccccc2)c2ccccc2)N1c1c2ccccc2nc2c1cccc2,355.4,0.163148237,-0.7258,-7.5799,2.70176,361.7863974482161,0.161686151,-1.0744,-7.8166,144.46240,-1.35,-8.49,3.59674,NaN,NaN,385,NaN,385,NaN,NaN
BOCJQSFSGAZAPQ-UHFFFAOYSA-N,Clc1cccc2c1C(=O)c1ccccc1C2=O,Clc1cccc2c1C(=O)c1ccccc1C2=O,364.3,2.51e-07,-1.1722,-9.4595,1.20404,321.78613653128383,0.004864214,-2.0369,-9.7171,117.71488,-1.761,-10.015,1.49329,NaN,NaN,337.0,NaN,156.6,NaN,NaN
HRBBGTIEJDMZHA-JFOAVASISA-N,O[C@H]1C(OC[C@]1(O)CO)n1ccc(=O)[nH]c1=O,O[C@H]1C(OC[C@]1(O)CO)n1ccc(=O)[nH]c1=O,233.6,0.016288718,0.7749,-9.2199,3.99775,303.88283922917566,0.000489311,-0.9384,-9.7094,41.58837,-0.764,-10.078,1.65888,NaN,NaN,261.0,NaN,260.0,NaN,NaN
YRFXYBMEDRKKQG-UHFFFAOYSA-N,c1ccc(cc1)c1ccc2c(c1)C(c1c2cccc1)c1c2ccccc2cc2c1cccc2,c1ccc(cc1)c1ccc2c(c1)C(c1c2cccc1)c1c2ccccc2cc2c1cccc2,369.0,0.185732312,-0.1644,-7.4289,0.43120,379.2725555384021,0.234123626,-0.6748,-7.1966,7.50464,-1.063,-8.254,0.20299,NaN,NaN,464.0,NaN,358.0,NaN,NaN
RMWFWIZKBXWLCV-UHFFFAOYSA-N,Oc1ccccc1c1nc2CCc3c(c2c2c1c1ccccc1CC2)cccc3,Oc1ccccc1c1nc2CCc3c(c2c2c1c1ccccc1CC2)cccc3,307.3,0.462979596,0.1522,-7.748,3.92824,352.127800072433,0.346442989,-0.32,-7.4447,78.58908,-0.804,-8.577,3.43094,NaN,NaN,339.0,23000.0,274.0,14000.000000000002,dichloromethane
QMVIJPNUNTVJNK-UHFFFAOYSA-N,O=S(=O)(c1ccc(cc1)c1ccc(cc1)N(c1ccccc1)c1ccccc1)c1ccc(cc1)c1ccc(cc1)N(c1ccccc1)c1ccccc1,O=S(=O)(c1ccc(cc1)c1ccc(cc1)N(c1ccccc1)c1ccccc1)c1ccc(cc1)c1ccc(cc1)N(c1ccccc1)c1ccccc1,308.7,1.273882608,-0.0094,-7.3336,6.74018,323.5495783024626,0.659932543,-0.3537,-7.4409,258.04996,-0.727,-8.11,6.08898,318.59439050580596,1.363355291,200,NaN,200,NaN,NaN
NURCGJFIZLEOMW-UHFFFAOYSA-N,CCCCCCCCC1(CCCCCCCC)c2cc(ccc2c2c1cc1nc3c4ccccc4c4c(c3nc1c2)cccc4)c1ccccc1,C1(C)c2cc(ccc2c2c1cc1nc3c4ccccc4c4c(c3nc1c2)cccc4)c1ccccc1,344.5,0.927172448,-0.6973,-7.8065,0.95335,412.04452776837377,1.006040546,-1.168,-7.442,76.19401,-1.418,-8.724,0.69814,355.84694624085716,0.9602255683,403,NaN,403,NaN,DMSO
BARODMQNPHSDRU-UHFFFAOYSA-N,CSCC(=O)CC(c1ccc(cc1)C#N)O,CSCC(=O)CC(c1ccc(cc1)C#N)O,273.0,0.005144471,0.2267,-8.8839,4.32116,328.34798306542285,0.000226473,-0.3592,-9.0815,41.70828,-0.858,-9.113,5.76295,NaN,NaN,NaN,NaN,NaN,NaN,NaN
QBRMYEYDPZNZFV-UHFFFAOYSA-N,CCCCCCc1ccsc1c1sc(c2c1cccc2)c1c(CCCCCC)sc2c1cccc2,Cc1ccsc1c1sc(c2c1cccc2)c1c(C)sc2c1cccc2,356.7,0.496120821,0.0106,-7.3633,0.89142,453.6560497823039,0.280606872,-0.7437,-6.9457,140.87137,-1.165,-8.211,1.54538,NaN,NaN,464,NaN,464,NaN,CH 2 Cl
BGCBUVLYYGSRPU-UHFFFAOYSA-N,N#Cc1ccc(cc1)c1nc2c(o1)cc(c1c2cccc1)Nc1ccc(cc1)N(CC)CC,N#Cc1ccc(cc1)c1nc2c(o1)cc(c1c2cccc1)Nc1ccc(cc1)N(CC)CC,340.8,1.144219997,-0.3238,-7.1188,8.66698,446.78990416397716,0.628446409,-1.1523,-6.9482,216.27461,-1.254,-7.771,9.06249,NaN,NaN,420.0,NaN,386.0,NaN,Acetone
FAKYYMDDJVFXKI-UHFFFAOYSA-N,C#Cc1ccc2c(c1)cc1c(c2)c(C)cc(=O)o1,C#Cc1ccc2c(c1)cc1c(c2)c(C)cc(=O)o1,318.4,0.079474557,-0.6456,-8.3917,5.14849,351.13055339989705,0.022495036,-1.2894,-8.1836,96.01942,-1.573,-9.116,5.62064,NaN,NaN,340.0,16300,329.0,16300,NaN
ZYGHJZDHTFUPRJ-UHFFFAOYSA-N,O=c1ccc2c(o1)cccc2,O=c1ccc2c(o1)cccc2,275.5,0.198466735,-0.0963,-8.9143,4.89426,318.80740140268364,0.293778919,-1.1234,-8.883,67.57308,-1.189,-9.556,4.61097,NaN,NaN,353.0,NaN,350.0,NaN,NaN
DDRFKXKKBYNNSO-SHYZEUOFSA-N,OC[C@H]1S[C@H](C[C@@H]1O)n1ccc(=O)[nH]c1=O,OC[C@H]1S[C@H](C[C@@H]1O)n1ccc(=O)[nH]c1=O,237.1,0.001304452,0.651,-8.8576,5.08259,306.2094304902535,0.000523458,-1.0375,-9.8254,33.72250,-0.809,-9.316,6.09628,NaN,NaN,260,NaN,260,NaN,NaN
HRUSAWHUEAWHFR-UHFFFAOYSA-N,Clc1ccc(cc1)c1cc(n(n1)Cc1ccc(cc1)C(C)(C)C)c1nnc(o1)COc1ccc(cc1Cl)Cl,Clc1ccc(cc1)c1cc(n(n1)Cc1ccc(cc1)C(C)(C)C)c1nnc(o1)COc1ccc(cc1Cl)Cl,256.2,0.54490753,0.4033,-8.3097,4.42810,332.9328636023192,0.184550565,-1.1034,-8.2822,516.36717,-1.051,-9.127,5.50567,NaN,NaN,262,41950,262,41950,DCM
CPWOAXKTSKNLGE-UHFFFAOYSA-N,CCOC(=O)Cc1csc(n1)N=Nc1ccc(c2c1cccn2)O,CCOC(=O)Cc1csc(n1)N=Nc1ccc(c2c1cccn2)O,455.4,0.000264221,-0.9191,-7.8336,3.54898,540.4716582628756,0.014207514,-1.7436,-8.1033,113.95496,-1.698,-8.899,2.49578,NaN,NaN,565.0,NaN,438.0,NaN,DMSO
CWVRJTMFETXNAD-NCZKRNLISA-N,O=C(O[C@@H]1C[C@@](O)(C[C@H]([C@H]1O)O)C(=O)O)C=Cc1ccc(c(c1)O)O,O=C(O[C@@H]1C[C@@](O)(C[C@H]([C@H]1O)O)C(=O)O)C=Cc1ccc(c(c1)O)O,285.3,0.447574821,-0.2808,-8.44,5.55201,307.8058550285593,0.443040688,-1.2767,-8.835,68.45641,-1.267,-9.33,5.80532,NaN,NaN,NaN,NaN,NaN,NaN,NaN
LNEWTBATYYOIFU-UHFFFAOYSA-N,C1=CCc2c(C1)c(C=Nc1ccc3c(c1)cccc3)cc1c2CC=CC1,C1=CCc2c(C1)c(C=Nc1ccc3c(c1)cccc3)cc1c2CC=CC1,308.0,0.393955206,0.1594,-7.8323,1.96157,337.9236805819124,0.096976372,-0.0505,-7.6988,39.97561,-0.597,-8.654,1.69912,NaN,NaN,411.0,56780,251.0,21930,NaN
JQRLPLIVCCWRFS-UHFFFAOYSA-N,CCN(c1ccc(c(c1)O)c1[nH]c2c(n1)cc(c(c2)C(=O)OC)C(=O)OC)CC,CCN(c1ccc(c(c1)O)c1[nH]c2c(n1)cc(c(c2)C(=O)OC)C(=O)OC)CC,300.2,1.112314841,0.3715,-7.3683,5.28823,370.32317325419257,0.74111252,-0.8728,-7.7296,298.29891,-0.883,-8.288,7.85483,314.28982486055276,1.204395906,507.0,NaN,364.0,NaN,NaN
OAFOIMSXMYZJST-UHFFFAOYSA-N,CCN(c1ccc2c(c1)oc1c(c2)c2nc3c(n2c(=Nc2ccc(cc2)Br)n1)cccc3)CC,CCN(c1ccc2c(c1)oc1c(c2)c2nc3c(n2c(=Nc2ccc(cc2)Br)n1)cccc3)CC,376.3,1.387985757,-0.901,-7.4131,11.35407,453.82210250916415,0.833504035,-1.7084,-7.5117,603.78947,-1.611,-8.341,11.69438,NaN,NaN,529.0,NaN,521.0,NaN,Chloroform
XSXILSRQARBLHY-UHFFFAOYSA-N,Oc1ccc(c(c1)O)c1nc2c(o1)c(cc1c2cccc1)c1nc2c(s1)cccc2,Oc1ccc(c(c1)O)c1nc2c(o1)c(cc1c2cccc1)c1nc2c(s1)cccc2,324.9,0.487690889,-0.4377,-7.6856,1.51706,393.7256221197322,0.560779414,-1.0392,-7.5355,55.26025,-1.432,-8.669,1.02081,NaN,NaN,322,22600,322,22600,DMF
XWMLANAVGDNRRX-UHFFFAOYSA-N,C1CC2=Cc3ccc([nH]3)C=c3[nH]c(=Cc4[nH]c(C=C1N2)cc4)cc3,C1CC2=Cc3ccc([nH]3)C=c3[nH]c(=Cc4[nH]c(C=C1N2)cc4)cc3,573.9,0.117681817,-0.1366,-5.9434,1.24001,493.9609498227238,0.109279621,-0.5398,-6.421,25.94969,-1.012,-7.518,2.11134,NaN,NaN,715.0,NaN,651.0,NaN,chloroform
NGTCPFGWXMBZEP-KBQKSTHMSA-N,OC[C@H]1O[C@H](OP(=O)(OP(=O)(OC[C@H]2O[C@H]([C@@H]([C@@H]2O)O)n2ccc(=O)[nH]c2=O)O)O)[C@@H]([C@H]([C@H]1O)O)F,OC[C@H]1O[C@H](OP(=O)(OP(=O)(OC[C@H]2O[C@H]([C@@H]([C@@H]2O)O)n2ccc(=O)[nH]c2=O)O)O)[C@@H]([C@H]([C@H]1O)O)F,235.0,0.004363366,0.413,-9.6494,6.88729,304.7043460444917,0.000466133,-0.8874,-9.7149,102.00927,-1.536,-10.16,5.30208,NaN,NaN,NaN,NaN,NaN,NaN,NaN
RHUGEEIIMYXFOO-UHFFFAOYSA-N,Cc1ccc(cc1)c1ccc(nc1)c1ccccn1,Cc1ccc(cc1)c1ccc(nc1)c1ccccn1,276.7,0.903483387,0.2259,-8.2255,0.84914,321.03624651865266,0.757829278,-0.4153,-7.9092,75.48251,-0.927,-9.059,1.1388,280.4754960055185,0.842168217,326.0,NaN,302.0,NaN,NaN
VTESCROZXDNEAR-UHFFFAOYSA-N,COc1cc2c(cc1OC)cc(c1c2cccc1)C#N,COc1cc2c(cc1OC)cc(c1c2cccc1)C#N,303.9,0.112429348,-0.1969,-8.4088,5.42826,345.8415576164677,0.014465646,-0.8421,-8.1217,42.31424,-1.172,-8.644,5.71448,NaN,NaN,268,NaN,268,NaN,NaN
HKKXECLGBFNZLM-UHFFFAOYSA-N,O=Cc1ccc(s1)c1sc(c2c1cccc2)c1oc2c(c1C)cccc2,O=Cc1ccc(s1)c1sc(c2c1cccc2)c1oc2c(c1C)cccc2,410.0,1.05899808,-0.8858,-7.2554,3.91008,544.7460386885048,0.691799437,-1.5597,-6.9434,223.45097,-1.758,-8.369,3.32541,461.3536987766594,0.8285768236,530,NaN,530,NaN,CH 2 Cl
TWCMVUANPZDNQR-UHFFFAOYSA-N,O=C1OC(C)(C)OC(=O)C1=Cc1ccc(cc1)N(c1ccccc1)c1ccccc1,O=C1OC(C)(C)OC(=O)C1=Cc1ccc(cc1)N(c1ccccc1)c1ccccc1,342.7,1.165384167,-0.6166,-7.5762,5.11042,414.80160055370914,0.43370037,-1.3777,-7.5155,208.87565,-1.246,-8.257,4.66103,NaN,NaN,372,34700.0,372,34700.0,NaN
JXDYKVIHCLTXOP-UHFFFAOYSA-N,O=C1C(=O)Nc2c1cccc2,O=C1C(=O)Nc2c1cccc2,409.8,0.000282221,-0.8678,-9.0168,6.13137,447.9197919273977,0.000258489,-1.7783,-9.2171,78.55662,-1.376,-9.478,4.95326,NaN,NaN,296,NaN,296,NaN,NaN
OWRWMSAWLMZZKE-UHFFFAOYSA-N,NCc1sc2c(c1)cc(oc2=O)c1ccccc1,NCc1sc2c(c1)cc(oc2=O)c1ccccc1,300.9,0.557630375,-0.0986,-8.1534,4.74964,378.11588412779406,0.197196022,-1.179,-8.1894,143.32343,-1.34,-8.73,3.9833,NaN,NaN,NaN,NaN,NaN,NaN,NaN
AUFFTRMJLRMSFE-AWEZNQCLSA-N,NC(=O)C[C@@H](C(=O)OCc1ccccc1)Nc1nc2c(s1)cc(cc2)F,NC(=O)C[C@@H](C(=O)OCc1ccccc1)Nc1nc2c(s1)cc(cc2)F,260.9,0.024045147,1.0949,-8.2433,1.35353,307.2718671759694,0.242298676,-0.5185,-8.4776,205.68118,-1.3,-9.079,1.56265,NaN,NaN,281.0,NaN,274.0,NaN,NaN
UCLVHLWIDBKBKM-UHFFFAOYSA-N,COc1ccc2c(c1)c1ccccc1c(c2)C#N,COc1ccc2c(c1)c1ccccc1c(c2)C#N,305.2,0.146292651,-0.0612,-8.1759,6.20946,340.3354334490905,0.005980377,-0.8215,-8.0576,38.73881,-1.167,-8.869,5.67269,NaN,NaN,261,NaN,261,NaN,NaN
GJIZPFSKHFNQCL-UHFFFAOYSA-N,CC1=NC(=Cc2ccccc2Cl)C(=O)N1Cc1ccccc1,CC1=NC(=Cc2ccccc2Cl)C(=O)N1Cc1ccccc1,321.6,0.864962582,-0.4932,-8.1163,4.66584,328.43496266358585,0.622326552,-0.9938,-8.4024,174.70494,-1.146,-9.065,4.74617,337.57403890557464,0.6744857123,NaN,NaN,NaN,NaN,NaN
SNXIKYPDRHHYRV-UHFFFAOYSA-N,CCN(c1ccc(cc1)C(=O)Nc1ccc2c(c1)OCCOCCOCCOCCO2)CC,CCN(c1ccc(cc1)C(=O)Nc1ccc2c(c1)OCCOCCOCCOCCO2)CC,270.9,0.62272356,1.0529,-7.5086,5.18165,316.36692627074166,0.104928156,-0.1959,-7.875,270.82222,-0.122,-8.227,7.17014,NaN,NaN,323.0,NaN,312.0,NaN,CHX
GNUKJWWMTDZRHQ-UHFFFAOYSA-N,CSCC(=O)CC(c1cc(cc(c1)C(F)(F)F)C(F)(F)F)O,CSCC(=O)CC(c1cc(cc(c1)C(F)(F)F)C(F)(F)F)O,273.5,0.005418189,0.4627,-8.8938,2.32533,327.82707140535075,0.000328409,-0.4956,-9.7545,147.89138,-1.292,-9.217,5.21608,NaN,NaN,NaN,NaN,NaN,NaN,NaN
BIHBVLBXDUYPIJ-UHFFFAOYSA-N,C#Cc1ccc(cc1)S(=O)c1ccc(cc1)C#C,C#Cc1ccc(cc1)S(=O)c1ccc(cc1)C#C,256.7,0.107469662,0.0283,-8.8475,3.48698,303.5108896095561,0.000128069,-0.478,-8.4801,95.32524,-0.747,-8.812,3.91293,NaN,NaN,269.86,NaN,269.86,NaN,NaN
FTHBTDDIVWLRLP-UHFFFAOYSA-N,N#Cc1nc(N)c(nc1C#N)N,N#Cc1nc(N)c(nc1C#N)N,279.4,0.239212632,-0.331,-9.031,10.11971,342.1197527745686,0.297864011,-1.2375,-8.7602,32.25080,-1.85,-9.512,8.95129,NaN,NaN,560.0,NaN,312.0,NaN,NaN
JJTLECMRBOPHIC-UHFFFAOYSA-N,Clc1ccc(c(c1)Cl)N=NC(=NNc1ccccc1)c1ccccc1,Clc1ccc(c(c1)Cl)N=NC(=NNc1ccccc1)c1ccccc1,512.7,0.001451031,-1.1995,-7.5434,0.55306,615.6117100571186,0.000190708,-1.9906,-7.6985,321.92572,-1.742,-8.364,0.38885,NaN,NaN,372,NaN,372,NaN,NaN
LTXWUWZNOXHPIB-UHFFFAOYSA-N,CCCCCCCCCCCCCCCCCCN=C1C(=C(c2n1c(N)c(c2C#N)C#N)C#N)C#N,CN=C1C(=C(c2n1c(N)c(c2C#N)C#N)C#N)C#N,437.8,0.496264317,-2.6536,-8.8271,8.73757,530.981577753763,0.269130399,-2.7614,-8.4935,55.15090,-2.93,-9.426,8.63926,NaN,NaN,579,NaN,579,NaN,NaN
CDQSZWKVXAYROG-UHFFFAOYSA-N,Clc1ccc(cc1)C1=C2C(=O)OC(=C2C(=O)N1)c1ccc(cc1)Cl,Clc1ccc(cc1)C1=C2C(=O)OC(=C2C(=O)N1)c1ccc(cc1)Cl,395.8,1.047969143,-1.4587,-7.9159,2.43726,420.99897591002946,0.752123969,-2.1112,-8.3624,25.76990,-1.992,-9.102,2.41085,425.87226671672255,0.7426519279,495.0,NaN,463.0,NaN,DMSO
WGVIQQRDXLNMFD-UHFFFAOYSA-N,CCCCCCCCC1(CCCCCCCC)c2cc(ccc2c2c1cccc2)c1nnn(c1)c1ccc(cc1)C,C1(C)c2cc(ccc2c2c1cccc2)c1nnn(c1)c1ccc(cc1)C,288.0,1.041931608,0.4683,-7.7339,4.83655,332.7541556776803,0.84296721,-0.4284,-7.5169,77.43721,-0.91,-8.528,4.41969,287.8332977579558,1.090560802,300,NaN,300,NaN,NaN
GHXZTYHSJHQHIJ-UHFFFAOYSA-N,NC(=NCCCCCCN=C(N=C(Nc1ccc(cc1)Cl)N)N)N=C(Nc1ccc(cc1)Cl)N,NC(=NCN=C(N=C(Nc1ccc(cc1)Cl)N)N)N=C(Nc1ccc(cc1)Cl)N,256.5,0.382912444,1.1179,-8.0908,1.88798,309.5735291023812,0.045979603,-0.1657,-8.3566,134.65062,-0.581,-9.0,4.68528,NaN,NaN,NaN,NaN,NaN,NaN,NaN
LUKBXSAWLPMMSZ-UHFFFAOYSA-N,Oc1ccc(cc1)C=Cc1cc(O)cc(c1)O,Oc1ccc(cc1)C=Cc1cc(O)cc(c1)O,290.8,1.022256236,0.4387,-7.6087,0.96993,294.9897654187572,0.654893924,-0.1224,-7.9709,36.65513,-0.609,-8.889,1.67428,303.63723706129707,0.9784291527,310.0,NaN,305.0,NaN,Water
XWTBWGOVAMAFAX-UHFFFAOYSA-N,c1ccc(nc1)c1ccc(cn1)c1ccccn1,c1ccc(nc1)c1ccc(cn1)c1ccccn1,283.8,0.932595902,-0.0307,-8.3719,1.87573,328.0005248822848,0.89961417,-0.6163,-7.993,13.20685,-1.185,-9.262,1.88412,287.0801912782241,0.2119091874,319.0,NaN,305.0,NaN,NaN
SRVJKTDHMYAMHA-UHFFFAOYSA-N,CC(=O)Nc1ccc(cc1)C=NNC(=S)N,CC(=O)Nc1ccc(cc1)C=NNC(=S)N,297.7,1.235870288,0.0141,-7.8307,7.92228,384.5663722255076,3.08e-05,-0.8885,-8.284,191.89434,-0.981,-8.416,9.21657,NaN,NaN,NaN,NaN,NaN,NaN,NaN
ZDFBPPCYNUEZKB-BMBOGREESA-N,COC(=O)c1cc2ccccc2cc1c1cc2ccccc2cc1C(=O)N[C@@H]1C[C@@H]2C[C@H]([C@H]1C)C2(C)C,COC(=O)c1cc2ccccc2cc1c1cc2ccccc2cc1C(=O)N[C@@H]1C[C@@H]2C[C@H]([C@H]1C)C2(C)C,290.5,0.059675161,0.0624,-8.0868,5.12838,322.53953799558707,0.015211849,-0.5108,-8.0784,128.90578,-0.958,-9.038,4.28357,NaN,NaN,227.8,21000,227.8,21000,NaN
AEOCXXJPGCBFJA-UHFFFAOYSA-N,CCc1nccc(c1)C(=S)N,CCc1nccc(c1)C(=S)N,360.1,0.005035046,-0.1256,-8.439,4.04209,432.0006913083751,0.000452076,-0.4972,-8.8459,110.80632,-0.79,-8.637,4.57561,NaN,NaN,NaN,NaN,NaN,NaN,NaN
YZVWKHVRBDQPMQ-UHFFFAOYSA-N,Nc1ccc2c3c1ccc1c3c(cc2)ccc1,Nc1ccc2c3c1ccc1c3c(cc2)ccc1,344.1,0.31803245,0.2381,-6.9689,2.03122,376.73715711183127,0.257189699,-0.5439,-6.9657,17.68143,-0.858,-7.733,2.64687,NaN,NaN,1601,NaN,1601,NaN,NaN
FUEVNKAUZBHQAN-UHFFFAOYSA-N,CCCCCCCCOc1ccc(cc1)C1CC(=NN1c1ccc(c(c1)C)C)c1ccc(cc1)F,COc1ccc(cc1)C1CC(=NN1c1ccc(c(c1)C)C)c1ccc(cc1)F,315.7,0.928279236,0.6826,-6.994,2.89293,338.0158080847973,0.495414877,-0.5823,-7.6126,178.78256,-0.629,-8.068,2.15773,331.93454971417714,0.6431737751,364,NaN,364,NaN,NaN
DTUQWGWMVIHBKE-UHFFFAOYSA-N,O=CCc1ccccc1,O=CCc1ccccc1,270.8,7.7892e-05,1.4385,-9.1077,2.52852,339.12526916166206,4.627e-06,-0.0233,-8.8221,37.12168,-0.083,-9.738,2.78206,NaN,NaN,485,NaN,485,NaN,NaN
XCELBMAMCHRJED-UHFFFAOYSA-N,N#Cc1ccc(cc1)c1cn(c2c1cc(C)cc2)C,N#Cc1ccc(cc1)c1cn(c2c1cc(C)cc2)C,277.7,0.568940749,0.3555,-7.7861,7.55836,319.87667287281647,0.343162636,-0.3972,-7.6901,87.95405,-0.703,-8.396,7.62083,NaN,NaN,0,NaN,0,NaN,NaN
RDDHBFAEEIKEFF-UHFFFAOYSA-N,CN(CCNC(=O)c1cc2nc(sc2c2c1cccc2)c1ccccc1)C,CN(CCNC(=O)c1cc2nc(sc2c2c1cccc2)c1ccccc1)C,306.9,0.244256113,-0.033,-7.9309,3.92899,360.523984895329,0.46569349,-0.8042,-7.6576,110.54705,-1.308,-8.801,4.50544,NaN,NaN,394.0,NaN,358.0,NaN,NaN
XSWARSOLPFPXLJ-UHFFFAOYSA-N,c1ccc(cc1)[Si](c1ccccc1)(c1ccccc1)c1ccc(cc1)c1cccc(c1)[Si](c1ccccc1)(c1ccccc1)c1ccccc1,c1ccc(cc1)[Si](c1ccccc1)(c1ccccc1)c1ccc(cc1)c1cccc(c1)[Si](c1ccccc1)(c1ccccc1)c1ccccc1,253.2,0.509922797,0.7226,-8.4183,0.16837,280.6342200215112,0.0099876,0.3321,-8.1121,6.08208,-0.197,-9.133,0.09427,NaN,NaN,262,NaN,262,NaN,NaN
MRGXIWSPSBNGGJ-UHFFFAOYSA-N,CCn1c2ccc(cc2c2c1cccc2)c1ccc(s1)c1ncncc1c1ccc2c(c1)c1ccccc1n2CC,CCn1c2ccc(cc2c2c1cccc2)c1ccc(s1)c1ncncc1c1ccc2c(c1)c1ccccc1n2CC,317.8,0.705724919,0.1162,-7.372,7.08208,365.8430168353605,0.30578379,-0.3361,-7.3326,236.97237,-1.009,-8.195,6.06363,NaN,NaN,392.0,35680.0,392.0,35680.0,NaN
SZUSXHXWPPUQJR-UHFFFAOYSA-N,[O-][N+](=O)c1ccc(cc1)N=Nc1nc2c(s1)cc(cc2)[N+](=O)[O-],[O-][N+](=O)c1ccc(cc1)N=Nc1nc2c(s1)cc(cc2)[N+](=O)[O-],484.6,7.9549e-05,-2.1484,-9.5337,0.52330,536.4958823258488,0.005748804,-3.089,-9.4095,61.99239,-2.638,-9.876,0.61448,NaN,NaN,338.0,NaN,332.0,NaN,Methanol
BBQDLDVSEDAYAA-UHFFFAOYSA-N,OC(=O)C=Cc1ccccc1[N+](=O)[O-],OC(=O)C=Cc1ccccc1[N+](=O)[O-],320.3,0.00763842,-0.7295,-9.6863,4.14681,476.1297941839618,0.002010844,-2.8187,-9.7999,99.04177,-1.6,-10.67,5.75795,NaN,NaN,400,NaN,400,NaN,NaN
XQZYPMVTSDWCCE-UHFFFAOYSA-N,N#Cc1ccccc1C#N,N#Cc1ccccc1C#N,245.0,0.017078208,-0.6269,-10.2842,7.35706,281.20707281810763,0.014819505,-1.0519,-9.7269,52.20553,-1.542,-10.769,6.62341,NaN,NaN,500,NaN,500,NaN,NaN
RZOVCYGQNDYSCH-UHFFFAOYSA-N,NC(=S)NN=Cc1c[nH]c2c1cccc2,NC(=S)NN=Cc1c[nH]c2c1cccc2,278.6,1.079930962,0.5439,-7.5967,7.98219,382.1954328159792,1.2484e-05,-0.7899,-8.0619,179.85526,-0.859,-8.305,8.14373,302.6883938605978,0.0002624834,264,NaN,264,NaN,NaN
QFAWBPLETHINFK-UNMCSNQZSA-N,SC[C@@H](C(=O)NCC(=O)N[C@H](C(=O)OC)C(C)C)NCc1ccc(cc1)c1ccccc1,SC[C@@H](C(=O)NCC(=O)N[C@H](C(=O)OC)C(C)C)NCc1ccc(cc1)c1ccccc1,249.3,0.259051306,0.9079,-8.4777,1.07448,285.4148213754688,0.002830692,0.1677,-8.1939,170.86299,-0.262,-8.655,2.02481,NaN,NaN,NaN,NaN,NaN,NaN,NaN
HSMNQINEKMPTIC-UHFFFAOYSA-N,O=C(c1ccc(cc1)N)NCC(=O)O,O=C(c1ccc(cc1)N)NCC(=O)O,262.2,0.052417356,0.7224,-8.3635,9.25053,299.2618836724684,0.220038142,-0.7435,-8.7284,107.48041,-0.194,-8.818,6.3941,NaN,NaN,NaN,NaN,NaN,NaN,NaN
MHANZYSIYXIMST-UHFFFAOYSA-N,COC(=O)c1ccc2c(c1C(=O)OC)nc1c(n2)c2c(n1CC)cccc2,COC(=O)c1ccc2c(c1C(=O)OC)nc1c(n2)c2c(n1CC)cccc2,352.8,0.065694024,-0.7431,-8.1839,5.29319,374.1225057498602,0.138711616,-1.4303,-8.3535,165.30990,-1.647,-8.844,5.33682,NaN,NaN,406.0,NaN,296.0,NaN,DMF
DQWCILABCIEWCL-UHFFFAOYSA-N,C=CCOC1CCCCN1c1ccnnn1,C=CCOC1CN1c1ccnnn1,357.1,0.015951096,0.3144,-9.3185,5.68088,335.1830181278823,0.009368862,-0.5426,-9.7809,55.63259,-1.153,-10.1,4.38649,NaN,NaN,278,NaN,278,NaN,NaN
ZIIMKOIZEDXGMW-UHFFFAOYSA-N,OCCN1C2(c3ccc(cc3Oc3c2ccc(c3)N2CCOCC2)N2CCOCC2)c2c(S1(=O)=O)cccc2,OCCN1C2(c3ccc(cc3Oc3c2ccc(c3)N2CCOCC2)N2CCOCC2)c2c(S1(=O)=O)cccc2,267.7,0.065508599,0.7623,-7.9405,5.64632,301.371410805794,0.032502182,-0.4967,-8.1494,173.47628,-0.543,-8.538,5.93207,NaN,NaN,552,NaN,552,NaN,NaN
LASNRVOKTZXRAH-UHFFFAOYSA-N,CCCSC1=C(SCCC)SC(=c2sc3=c(s2)c(=C2SC(=C(S2)C(=O)OC)C(=O)OC)nc3)S1,CCCSC1=C(SCCC)SC(=c2sc3=c(s2)c(=C2SC(=C(S2)C(=O)OC)C(=O)OC)nc3)S1,471.0,0.031975437,-0.6465,-6.7487,3.85139,385.1637104861872,0.06580043,-1.3305,-8.2804,257.34905,-1.952,-7.615,2.32956,NaN,NaN,333,NaN,333,NaN,NaN
PDFSAKNYLXGDRN-UHFFFAOYSA-N,COc1ccc(cc1)C(=Cc1ccc(cc1)C=C(c1ccccc1)C#N)c1ccc(cc1)OC,COc1ccc(cc1)C(=Cc1ccc(cc1)C=C(c1ccccc1)C#N)c1ccc(cc1)OC,336.2,0.889189237,-0.3232,-7.5919,8.07467,330.3602408886322,0.507034213,-0.4145,-7.614,28.76861,-0.67,-8.369,2.94271,361.385662263144,1.0699263648,290,NaN,290,NaN,NaN
PFTAWBLQPZVEMU-UKRRQHHQSA-N,Oc1cc2O[C@H](c3ccc(c(c3)O)O)[C@@H](Cc2c(c1)O)O,Oc1cc2O[C@H](c3ccc(c(c3)O)O)[C@@H](Cc2c(c1)O)O,248.3,0.056124258,1.8748,-8.0137,2.96033,293.31487675775645,0.006973796,0.3463,-8.3701,50.93011,-0.175,-8.9,1.73522,NaN,NaN,293,NaN,293,NaN,NaN
RUXHMMXFTNVUAT-UHFFFAOYSA-N,N#CC(=Cc1ccc(s1)c1ccc(s1)c1ccc2c3c1ccc1c3c(cc2)ccc1)C(=O)O,N#CC(=Cc1ccc(s1)c1ccc(s1)c1ccc2c3c1ccc1c3c(cc2)ccc1)C(=O)O,387.9,2.017414968,-1.2344,-7.528,8.06299,480.74524391432203,1.041943234,-1.8088,-7.4326,467.96542,-1.974,-8.506,4.92537,NaN,NaN,524.0,40000.0,278.0,23200.0,THF
JJWGRGFWBKDUDO-UHFFFAOYSA-N,O=c1oc2ccccc2cc1C(=C)c1[nH]c2c(c1CCNS(=O)(=O)c1ccccc1[N+](=O)[O-])cccc2,O=c1oc2ccccc2cc1C(=C)c1[nH]c2c(c1CCNS(=O)(=O)c1ccccc1[N+](=O)[O-])cccc2,315.1,0.010846374,-0.6122,-7.9384,3.26900,698.8962706059958,0.010271643,-2.9165,-7.6755,138.52490,-1.602,-8.422,5.67676,NaN,NaN,297,NaN,297,NaN,NaN
WIKAKJGDWBKGIJ-UHFFFAOYSA-N,CCCCCCCCCCCCOc1ccc(cc1)C1CC(=NN1c1ccc(c(c1)C)C)c1ccc(cc1)Cl,COc1ccc(cc1)C1CC(=NN1c1ccc(c(c1)C)C)c1ccc(cc1)Cl,326.9,1.053518433,0.4541,-6.9868,3.07847,340.89688865961966,0.478226072,-0.6608,-7.6468,308.24982,-0.742,-8.077,2.73499,344.3909697209507,0.7441766239,416,NaN,416,NaN,NaN
VACRSWPYUYUZFN-UHFFFAOYSA-N,COc1ccc2c(c1)cc1c(n2)[nH]c(=O)c(c1)C#N,COc1ccc2c(c1)cc1c(n2)[nH]c(=O)c(c1)C#N,350.4,0.192290465,-1.2096,-8.4937,9.55731,380.43632527003274,0.404501361,-1.8333,-8.5809,103.43948,-2.098,-9.056,9.05198,NaN,NaN,398,NaN,398,NaN,acetone
NPDACUSDTOMAMK-UHFFFAOYSA-N,Cc1ccc(cc1)Cl,Cc1ccc(cc1)Cl,238.5,0.007180895,1.4384,-8.822,2.20698,271.1815363199993,0.006805456,0.2885,-9.1161,116.93554,-0.149,-9.492,2.83276,NaN,NaN,266.0,NaN,193.0,NaN,NaN
HESCAJZNRMSMJG-BCAXZHDFSA-N,O=C1O[C@@H](C[C@@H]2O[C@@H]2CCC[C@@H]([C@@H]([C@H](C(=O)C([C@H](C1)O)(C)C)C)O)C)C(=Cc1csc(n1)C)C,O=C1O[C@@H](C[C@@H]2O[C@@H]2CCC[C@@H]([C@@H]([C@H](C(=O)C([C@H](C1)O)(C)C)C)O)C)C(=Cc1csc(n1)C)C,268.6,0.001164501,0.9829,-8.108,3.12351,333.8292902679151,0.000294501,-0.1675,-7.7801,291.23917,-0.734,-8.807,6.64392,NaN,NaN,NaN,NaN,NaN,NaN,NaN
XHEFDIBZLJXQHF-UHFFFAOYSA-N,Oc1ccc2c(c1)oc(c(c2=O)O)c1ccc(c(c1)O)O,Oc1ccc2c(c1)oc(c(c2=O)O)c1ccc(c(c1)O)O,303.8,0.654306764,-0.0186,-7.7861,5.73800,359.68725966203556,0.012229142,-1.2069,-8.3206,29.56520,-1.078,-8.771,4.45724,NaN,NaN,430.0,NaN,358.0,NaN,NaN