inchikey,smi_pre,smi_post,lambda_sTDA (nm),f1_sTDA,lumo_dft,homo_dft,dmom_dft (D),lambda_z (nm),f1_z,lumo_z,homo_z,dmom_z (D),lumo_mopac,homo_mopac,dmom_mopac (D),lambda_tddft (nm),f1_tddft,lambda_exp_max (nm),epsilon_exp_max ,lambda_exp_min (nm),epsilon_exp_min ,solvent
PCTMERBOLNRGPP-UHFFFAOYSA-N,CCCCCCCCC1(CCCCCCCC)c2cc(ccc2c2c1cc1nc3c(nc1c2)c1cccc2c1c1c3cccc1cc2)c1ccc2c3c1ccc1c3c(cc2)ccc1,C1(C)c2cc(ccc2c2c1cc1nc3c(nc1c2)c1cccc2c1c1c3cccc1cc2)c1ccc2c3c1ccc1c3c(cc2)ccc1,357.9,1.479533853,-0.7154,-7.3875,0.81416,423.58796858730324,1.120383528,-1.1443,-7.1867,96.39217,-1.403,-8.364,0.55427,NaN,NaN,429,NaN,429,NaN,DMSO
CWQFIKQCUNGJKP-UHFFFAOYSA-N,COc1cc(ccc1OC)C(=O)On1c(=O)c2cccc3c2c(c1=S)ccc3,COc1cc(ccc1OC)C(=O)On1c(=O)c2cccc3c2c(c1=S)ccc3,405.5,0.000430148,-1.2383,-8.3812,4.55498,544.2677717537474,0.000411934,-1.8537,-8.5791,84.90769,-1.941,-8.755,4.24558,NaN,NaN,436.0,NaN,398.5,NaN,NaN
AQWMXIMUAYNOAU-UHFFFAOYSA-N,Oc1ccc(c2c1nccc2)N=Nn1nncc1,Oc1ccc(c2c1nccc2)N=Nn1nncc1,343.1,0.56089878,-0.9681,-8.319,5.99539,431.69985517236654,0.092897629,-1.7299,-8.1951,56.19303,-1.867,-9.122,3.01305,NaN,NaN,487,NaN,487,NaN,Methanol
AMAFJBXKSBCXMV-UHFFFAOYSA-N,CC(=O)C(C(c1ccccc1Br)O)Cl,CC(=O)C(C(c1ccccc1Br)O)Cl,273.4,0.001252738,0.7132,-9.1864,2.67334,337.463795333434,0.000247792,-0.514,-9.3234,162.48304,-0.552,-9.685,4.63098,NaN,NaN,NaN,NaN,NaN,NaN,NaN
SCZZZBWWQGTQFH-UHFFFAOYSA-N,CC(=C)C1CCC(=CC1)C=Nc1ccc(cc1)O,CC(=C)C1CCC(=CC1)C=Nc1ccc(cc1)O,291.0,0.423069593,0.6108,-7.7574,0.68627,345.93805358678475,0.02742825,-0.1918,-8.0444,160.55040,-0.443,-8.665,1.15327,NaN,NaN,390.0,NaN,325.0,NaN,NaN
LUIVXEVAMCJCMP-UHFFFAOYSA-N,CCCCC#Cc1ccc(s1)C1(CC=CS1)C#CCCCC,C#Cc1ccc(s1)C1(CC=CS1)C#C,285.4,0.082882757,0.3946,-8.1423,1.30118,336.7305768753494,0.366401364,-0.2168,-7.7935,51.62046,-0.895,-8.501,2.08473,NaN,NaN,257,NaN,257,NaN,NaN
XBZVPVFQWAMFRB-UHFFFAOYSA-N,OC(=O)c1c[nH]c2c1CCc1c2cccc1Cl,OC(=O)c1c[nH]c2c1CCc1c2cccc1Cl,273.5,0.388877927,0.7998,-7.8862,2.35937,346.7119642212071,0.347726719,-0.6041,-7.8254,73.78155,-0.689,-8.828,4.84083,NaN,NaN,NaN,NaN,NaN,NaN,NaN
XRTVSACRRXWWAZ-UHFFFAOYSA-N,Oc1ccc2c(c1)c1c(C)cc(=O)oc1cc2,Oc1ccc2c(c1)c1c(C)cc(=O)oc1cc2,307.9,0.270744407,-0.1074,-8.1678,5.25664,363.2704318942387,0.35495666,-1.2012,-8.1994,54.96493,-1.273,-9.145,4.81337,NaN,NaN,354.0,4100,350.0,13800,NaN
PJSNXTGHCHOMDT-UHFFFAOYSA-N,OCCC#Cc1ccc(cc1)S(=O)(=O)C,OCCC#Cc1ccc(cc1)S(=O)(=O)C,251.2,0.338713476,-0.0175,-9.2216,3.81912,329.1324619206362,0.002103693,-0.6004,-8.8679,143.97678,-0.928,-9.817,4.48258,NaN,NaN,NaN,NaN,NaN,NaN,NaN
PUHJOXYSMCRZFS-UHFFFAOYSA-N,CN(c1cccc2c1cccc2C#Cc1cccc2c1cccc2C#Cc1cccc2c1cccc2N(C)C)C,CN(c1cccc2c1cccc2C#Cc1cccc2c1cccc2C#Cc1cccc2c1cccc2N(C)C)C,347.9,1.635959081,-0.2296,-7.3936,0.24418,370.4338165685798,1.075283333,-0.5436,-7.2022,1.82394,-0.993,-8.309,0.18437,355.2759270136955,1.5652784085,525.0,33000,373.0,33000,NaN
GLVAUDGFNGKCSF-UHFFFAOYSA-N,Sc1ncnc2c1[nH]cn2,Sc1ncnc2c1[nH]cn2,262.9,0.007998166,0.4059,-9.0659,4.93010,314.7605950888643,0.001652631,-0.5688,-8.7324,46.26750,-1.313,-9.311,5.329,NaN,NaN,321.0,NaN,321.0,NaN,NaN
CQKFQFYKWAGYHP-UHFFFAOYSA-N,CN(c1c(F)c2nc3c(F)c(F)c(c(c3nc2c(c1F)F)F)F)C,CN(c1c(F)c2nc3c(F)c(F)c(c(c3nc2c(c1F)F)F)F)C,388.4,0.086093822,-1.4257,-8.3741,3.80089,418.8655351537286,0.245563792,-2.7395,-9.0114,194.55089,-2.481,-9.127,5.16589,NaN,NaN,467,NaN,467,NaN,NaN
ANLMWOWBLDIZCO-UHFFFAOYSA-N,N#CC(=Cc1ccc(cc1)N(c1ccccc1)c1ccccc1)c1ccccc1,N#CC(=Cc1ccc(cc1)N(c1ccccc1)c1ccccc1)c1ccccc1,333.3,0.920824255,-0.185,-7.4191,6.41758,349.25126311409485,0.445970089,-0.4723,-7.3926,80.61683,-0.832,-8.063,3.69406,NaN,NaN,403.0,NaN,306.0,NaN,Cyclohexane
HZPZWWOMXYDREK-UHFFFAOYSA-N,Nc1sc(c(n1)c1ccc(cc1)NC(=O)c1ccccc1)N=Nc1ccccc1[N+](=O)[O-],Nc1sc(c(n1)c1ccc(cc1)NC(=O)c1ccccc1)N=Nc1ccccc1[N+](=O)[O-],441.4,0.034922803,-0.8035,-7.7306,4.09967,554.7391427539314,0.049358157,-1.9424,-7.5455,345.58950,-1.539,-8.452,5.86427,NaN,NaN,505,NaN,505,NaN,DMSO
ZUMHPFURPMPMSM-UHFFFAOYSA-N,c1ccc(cc1)c1cccc2c1Nc1ccccc1S2,c1ccc(cc1)c1cccc2c1Nc1ccccc1S2,306.2,0.003706779,1.0674,-7.3298,2.63311,308.9563877535601,0.110343632,0.379,-7.5772,105.04628,-0.36,-7.577,2.6382,NaN,NaN,NaN,NaN,NaN,NaN,NaN
HRRNMBMFAFHXRQ-UHFFFAOYSA-N,Cc1c(sc2c1c(C)c(s2)c1nnc(o1)c1cccs1)c1nnc(o1)c1cccs1,Cc1c(sc2c1c(C)c(s2)c1nnc(o1)c1cccs1)c1nnc(o1)c1cccs1,309.0,2.139442275,-0.1239,-8.0132,4.37507,429.15956526654094,1.396887942,-1.231,-7.514,151.60593,-1.616,-8.549,6.10766,317.1924708586765,1.802986493,355,NaN,355,NaN,Ethanol
BLXXJMDCKKHMKV-UHFFFAOYSA-N,COc1ccc2c(c1)ccc(c2)CCC(=O)C,COc1ccc2c(c1)ccc(c2)CCC(=O)C,289.5,0.057412217,0.7763,-7.8854,3.76477,323.80307758031773,0.034395296,-0.1739,-7.9055,38.10923,-0.559,-8.616,2.45659,NaN,NaN,1800,NaN,1800,NaN,NaN
JHIUUVGMXZJWQL-UHFFFAOYSA-N,CCCCCCc1ccc(s1)c1sc(c2c1cccc2)c1ccc2c(c1)C(CCCCCC)(CCCCCC)c1c2cccc1,Cc1ccc(s1)c1sc(c2c1cccc2)c1ccc2c(c1)C(C)(C)c1c2cccc1,381.6,0.941849266,-0.1325,-7.0273,0.62296,462.8002926670536,0.401395841,-0.7262,-6.8322,250.96378,-1.166,-8.27,1.21295,414.05354331164654,0.6990026246,430,NaN,430,NaN,CH 2 Cl
KCIJNJVCFPSUBQ-UHFFFAOYSA-N,CC(=O)c1ccc2c3c1ccc1c3c(cc2)ccc1,CC(=O)c1ccc2c3c1ccc1c3c(cc2)ccc1,339.5,0.353577352,-0.4725,-7.7375,3.47445,360.3144388419171,0.001889694,-0.8994,-7.5112,51.70341,-1.341,-8.511,3.00233,NaN,NaN,439.0,NaN,359.0,NaN,NaN
RFAIUTIUSCRMNR-UHFFFAOYSA-N,Clc1ccc2c(c1)c1cccc(c1[nH]2)Cl,Clc1ccc2c(c1)c1cccc(c1[nH]2)Cl,291.2,0.051511,0.4187,-8.0547,1.58094,319.0535213728864,0.014286058,-0.5432,-8.4342,41.69548,-0.947,-8.753,1.40323,NaN,NaN,364.0,NaN,296.0,NaN,NaN
PHMCQWCRAYBEHG-UHFFFAOYSA-N,CCCCCCCCn1c(=O)c2c(c1c1ccc(s1)C)c(=O)n(c2c1ccc(s1)Br)CCCCCCCC,Cn1c(=O)c2c(c1c1ccc(s1)C)c(=O)n(c2c1ccc(s1)Br)C,439.9,0.971341229,-1.062,-7.0983,2.66688,491.22107133717776,0.668856492,-1.7747,-7.5644,478.68846,-1.532,-8.266,2.63309,NaN,NaN,564.0,NaN,524.0,NaN,NaN
DQYCIZPXADUTPO-UHFFFAOYSA-N,CCCCCCCCCOc1ccc(cc1)C1CC(=NN1c1ccc(c(c1)C)C)c1ccc(cc1)Cl,COc1ccc(cc1)C1CC(=NN1c1ccc(c(c1)C)C)c1ccc(cc1)Cl,326.3,1.054902274,0.4624,-6.9847,3.16806,341.9310491050846,0.479005561,-0.662,-7.6388,308.44479,-0.742,-8.081,2.75053,343.61785103164857,0.747543179,408,NaN,408,NaN,NaN
VYWYYJYRVSBHJQ-UHFFFAOYSA-N,OC(=O)c1cc(cc(c1)[N+](=O)[O-])[N+](=O)[O-],OC(=O)c1cc(cc(c1)[N+](=O)[O-])[N+](=O)[O-],315.7,4.915e-06,-1.3326,-11.0883,3.78166,427.38434472769273,3.04e-07,-3.3514,-11.2704,19.70942,-2.357,-11.707,3.39245,NaN,NaN,231,NaN,231,NaN,NaN
QHXGNBXZGDWCTG-UHFFFAOYSA-N,Cc1sc(cc1c1sc(=S)sc1c1cc(sc1C)C)C,Cc1sc(cc1c1sc(=S)sc1c1cc(sc1C)C)C,369.6,0.001187321,0.1018,-7.7845,5.73023,506.2645912842126,8.4e-08,-0.9426,-7.9053,191.59922,-1.324,-8.172,4.68461,NaN,NaN,660.0,NaN,378.0,NaN,NaN
NDCPZIACEAZFHJ-UHFFFAOYSA-N,Cc1nc2n(c1N=Nc1ccc(cc1)[N+](=O)[O-])nc(c1c2c(c2ccccc2)n(n1)c1ccccc1)C,Cc1nc2n(c1N=Nc1ccc(cc1)[N+](=O)[O-])nc(c1c2c(c2ccccc2)n(n1)c1ccccc1)C,441.1,0.005136115,-1.0468,-7.8527,11.40078,498.9303758772783,0.122214435,-2.2115,-7.6568,353.61252,-1.659,-8.819,12.12855,NaN,NaN,430.0,NaN,250.0,NaN,NaN
WHMDPDGBKYUEMW-UHFFFAOYSA-N,S=c1cccc[nH]1,S=c1cccc[nH]1,344.6,8.52e-07,0.2583,-7.7829,5.65675,454.3209908593025,0.000170461,-1.0408,-8.107,71.66839,-1.062,-8.329,5.91079,NaN,NaN,345,NaN,345,NaN,NaN
GMDYDZMQHRTHJA-UHFFFAOYSA-N,OC(c1ccccc1)C(C)C,OC(c1ccccc1)C(C)C,232.6,0.004199878,1.6303,-9.0661,1.22908,270.17694139355774,0.005288076,0.6377,-8.8261,36.61187,0.069,-9.676,1.52771,NaN,NaN,NaN,NaN,NaN,NaN,NaN
AGDLCUYQTJKELA-UHFFFAOYSA-N,Fc1ccc(cc1)c1nn2c(c1)cc(cc2)c1nnc(o1)c1ccccc1,Fc1ccc(cc1)c1nn2c(c1)cc(cc2)c1nnc(o1)c1ccccc1,315.6,0.267488742,-0.3228,-8.1982,3.98348,394.9799248343538,0.568829944,-1.2751,-7.8327,104.42763,-1.6,-9.094,4.42188,NaN,NaN,383.0,NaN,283.0,NaN,Cyclohexane
QQBHYGJZFSQZCQ-UHFFFAOYSA-N,CCOC(=O)CC(=NNc1ccc(cc1[N+](=O)[O-])[N+](=O)[O-])C,CCOC(=O)CC(=NNc1ccc(cc1[N+](=O)[O-])[N+](=O)[O-])C,323.9,0.217630537,-0.8149,-8.6504,8.97116,464.18644105392616,0.099288366,-2.8633,-9.0843,204.75678,-1.697,-9.429,9.60198,NaN,NaN,372,NaN,372,NaN,NaN
RQGVZEFZWFEKQR-UHFFFAOYSA-N,Clc1ccc(cc1Cl)c1cc(Cl)c(c(c1)Cl)O,Clc1ccc(cc1Cl)c1cc(Cl)c(c(c1)Cl)O,257.0,0.048992457,0.3992,-8.5809,1.34288,291.52174560428796,0.031308796,-0.8724,-9.1833,52.97709,-1.146,-9.532,2.57899,NaN,NaN,682.0,NaN,682.0,NaN,NaN
PWLYJFMQOFDIKS-SAIUNTKASA-N,COC(=O)[C@@]1(C[C@]1(O[Si](C(C)(C)C)(c1ccccc1)c1ccccc1)c1ccccc1)c1ccc(cc1)Br,COC(=O)[C@@]1(C[C@]1(O[Si](C(C)(C)C)(c1ccccc1)c1ccccc1)c1ccccc1)c1ccc(cc1)Br,236.6,0.031726899,1.0162,-8.7125,2.16947,280.3169758207182,0.015379664,0.0139,-8.6455,507.63467,-0.188,-9.297,3.44862,NaN,NaN,NaN,NaN,NaN,NaN,NaN
FFDGOZVYWSWQHU-UHFFFAOYSA-N,Cc1ccc(cc1)C(=Cc1ccc2c(n1)cccc2)NN=Cc1ccc(cc1)[N+](=O)[O-],Cc1ccc(cc1)C(=Cc1ccc2c(n1)cccc2)NN=Cc1ccc(cc1)[N+](=O)[O-],367.1,1.247887113,-0.7891,-7.4797,6.75839,433.5111832360268,0.605225221,-2.5811,-7.6288,235.65505,-1.534,-8.469,7.00959,393.7631181415805,1.0030990597,438,NaN,438,NaN,ethanol
WMUIIGVAWPWQAW-DEOSSOPVSA-N,CCO[C@H](C(=O)O)Cc1ccc(cc1)OCCN1c2ccccc2Oc2c1cccc2,CCO[C@H](C(=O)O)Cc1ccc(cc1)OCCN1c2ccccc2Oc2c1cccc2,312.8,0.017866801,1.2939,-7.2437,4.40892,NaN,NaN,NaN,Nan,NaN,-0.356,-8.019,3.43566,NaN,NaN,NaN,NaN,NaN,NaN,NaN
CBCQWVQNMGNYEO-UHFFFAOYSA-N,ONc1ncnc2c1[nH]cn2,ONc1ncnc2c1[nH]cn2,244.3,0.050952921,0.9201,-8.7775,6.82597,309.96049601375915,0.203651907,-0.4591,-8.5797,17.53648,-1.077,-9.642,6.79915,NaN,NaN,NaN,NaN,NaN,NaN,NaN
WMHMJRWLJLMKPX-UHFFFAOYSA-N,Fc1ccc(cc1)C(=O)On1c(=O)c2cccc3c2c(c1=S)ccc3,Fc1ccc(cc1)C(=O)On1c(=O)c2cccc3c2c(c1=S)ccc3,405.1,0.00055713,-1.2975,-8.6226,4.73740,542.1259221928451,0.000323412,-1.8902,-8.6257,163.15997,-2.005,-8.834,4.79273,NaN,NaN,454.0,NaN,400.0,NaN,NaN
NQJSSSVMLKYVAS-UHFFFAOYSA-N,O=c1[nH][nH]c(=O)c2c1cc1nc(c3ccccc3)c(nc1c2)c1ccccc1,O=c1[nH][nH]c(=O)c2c1cc1nc(c3ccccc3)c(nc1c2)c1ccccc1,335.9,0.006485718,-0.8976,-8.6988,2.11296,379.15657004741183,0.00412756,-1.4999,-8.3679,234.34503,-1.702,-9.355,3.11268,NaN,NaN,364.0,NaN,317.0,NaN,DMF
ZVFRJHACLVHBKV-UHFFFAOYSA-N,COc1ccc(cc1)C=Cc1ccc2n(n1)c(C(=O)OC)c(c2C(=O)OC)C(=O)OC,COc1ccc(cc1)C=Cc1ccc2n(n1)c(C(=O)OC)c(c2C(=O)OC)C(=O)OC,317.2,0.035122953,-0.327,-7.9047,5.38423,379.0406554738724,0.31328795,-1.364,-8.2777,205.97740,-1.401,-8.998,6.5838,NaN,NaN,466.0,NaN,328.0,NaN,MeOH
LCEIAFMDZYSWDE-UHFFFAOYSA-N,O=c1ccc2c(s1)c1cc(n(c1cc2)C)C,O=c1ccc2c(s1)c1cc(n(c1cc2)C)C,310.3,0.04425335,0.2023,-7.8075,7.89402,347.19741922571734,0.031875698,-0.9331,-7.9462,148.47548,-0.925,-8.341,8.16644,NaN,NaN,362.0,7849,353.0,7849,NaN
UVRXPGVBLDPJCG-UHFFFAOYSA-N,Nc1ccc(cc1)C=C1Oc2c(C1=O)cccc2,Nc1ccc(cc1)C=C1Oc2c(C1=O)cccc2,341.2,0.721002226,-0.4785,-7.482,2.43923,392.85233968790766,0.105995928,-1.0052,-7.7801,9.76177,-1.027,-8.319,4.30313,NaN,NaN,442,NaN,442,NaN,Methanol
KVVNHTMDRVYYII-NSHDSACASA-N,CC(=O)NC(=O)[C@H](Cc1c[nH]c2c1cccc2)N,CC(=O)NC(=O)[C@H](Cc1c[nH]c2c1cccc2)N,267.1,0.082368147,1.2334,-7.9718,3.32227,306.5880277089606,0.000791814,-0.2996,-7.848,90.30684,-0.402,-8.817,5.87241,NaN,NaN,350.0,NaN,334.0,NaN,cyclohexane
AFUSGJWNGUZXMM-UHFFFAOYSA-N,CCN1CCN(c2c1cc1oc(=O)c(cc1c2)c1nc2c(s1)cccc2)CC,CCN1CCN(c2c1cc1oc(=O)c(cc1c2)c1nc2c(s1)cccc2)CC,368.0,1.147356569,-0.2345,-7.0716,9.22835,428.1222320632033,0.729376086,-1.4274,-7.614,247.72349,-1.22,-8.037,8.0373,393.6381020707986,0.8912198637,501.0,NaN,495.0,NaN,Methanol
DDYFPIDBHNMURB-GOTSBHOMSA-N,COC(=O)[C@]1(C[C@]1(O[Si](C(C)(C)C)(C)C)c1ccc(cc1)Br)c1ccccc1,COC(=O)[C@]1(C[C@]1(O[Si](C(C)(C)C)(C)C)c1ccc(cc1)Br)c1ccccc1,242.8,0.088547605,1.0289,-8.6731,0.35863,279.1808115413278,0.013856166,0.1079,-8.66,403.32224,-0.376,-9.376,1.19897,NaN,NaN,NaN,NaN,NaN,NaN,NaN
JXENNHTVELFRHV-UHFFFAOYSA-N,N#CC(=Cc1cc2CCCN3c2c(c1)CCC3)C(=O)O,N#CC(=Cc1cc2CCCN3c2c(c1)CCC3)C(=O)O,321.7,1.021296875,-0.3456,-7.5358,9.35906,378.92481175276185,0.573205477,-1.3605,-7.9546,208.38044,-1.124,-8.183,7.67223,351.1305381173589,0.8645750143,452.0,NaN,444.0,NaN,NaN
NUENSQZEVGTVDW-UHFFFAOYSA-N,OCc1c(nc2n1cccn2)c1ccc(cc1)[N+](=O)[O-],OCc1c(nc2n1cccn2)c1ccc(cc1)[N+](=O)[O-],319.7,0.000469919,-0.6676,-8.7021,9.49299,421.7149605629376,0.009279691,-2.3021,-8.1603,110.52065,-1.668,-9.605,8.17809,NaN,NaN,265,NaN,265,NaN,NaN
JPVHCLMUVMLLQY-UHFFFAOYSA-N,O=P(c1c2ccccc2c(c2c1cccc2)P(=O)(c1ccccc1)c1ccccc1)(c1ccccc1)c1ccccc1,O=P(c1c2ccccc2c(c2c1cccc2)P(=O)(c1ccccc1)c1ccccc1)(c1ccccc1)c1ccccc1,407.6,0.231892614,-0.9813,-7.8391,6.36115,421.7149605629376,0.184113392,-1.2462,-7.5161,99.04018,-1.478,-8.323,4.01146,NaN,NaN,396,NaN,396,NaN,NaN
RMWUQZXSIZRWRU-UHFFFAOYSA-N,CCCCCCCCCCCCn1c(nc(c1c1ccccc1)c1ccccc1)c1ccc(cc1)c1nc2c(s1)cccc2,Cn1c(nc(c1c1ccccc1)c1ccccc1)c1ccc(cc1)c1nc2c(s1)cccc2,314.5,1.612212238,-0.1761,-7.5101,3.24429,377.77025717703737,0.781344613,-0.908,-7.2183,222.81902,-1.291,-8.497,4.14321,324.2942901476236,1.4199596728,392,NaN,392,NaN,NaN
XPYKNHQCGGGQQK-UHFFFAOYSA-N,COc1ccc(cc1)Oc1c2C(=O)c3ccccc3c3c2c(c2c1cccc2)oc(=O)c3,COc1ccc(cc1)Oc1c2C(=O)c3ccccc3c3c2c(c2c1cccc2)oc(=O)c3,354.4,0.229724169,-1.0866,-7.9143,3.65825,436.56407889261857,0.156180491,-1.7922,-7.8842,69.41628,-1.797,-8.635,2.96902,NaN,NaN,524.0,NaN,422.0,NaN,NaN
WSJZOJJBKCUZJV-JMDDAIJDSA-N,CCCCCCCCCCCCCC(=O)N[C@H](C(=O)OC)Cc1ccc(c(c1)[N+](=O)[O-])O[C@@H]1O[C@H](CO)[C@H]([C@@H]([C@H]1O)O)O[C@@H]1O[C@H](CO)[C@@H]([C@@]([C@H]1O)(O)S(=O)(=O)O)O,C(=O)N[C@H](C(=O)OC)Cc1ccc(c(c1)[N+](=O)[O-])O[C@@H]1O[C@H](CO)[C@H]([C@@H]([C@H]1O)O)O[C@@H]1O[C@H](CO)[C@@H]([C@@]([C@H]1O)(O)S(=O)(=O)O)O,317.9,0.017283513,-0.8079,-9.7238,13.59220,439.81624123981436,0.036390572,-2.7812,-9.7617,416.06194,-1.619,-10.115,13.1238,NaN,NaN,430,NaN,430,NaN,NaN
CHVMXHCSZAYZRO-UHFFFAOYSA-N,N#Cc1c2cc([nH]n2c(=N)c2c1c1CSc3c(c1oc2=O)cccc3)c1ccc(cc1)F,N#Cc1c2cc([nH]n2c(=N)c2c1c1CSc3c(c1oc2=O)cccc3)c1ccc(cc1)F,334.4,0.570753732,-0.4903,-7.9577,3.81166,469.1040423969114,0.254566797,-1.7176,-7.917,33.19396,-1.632,-8.535,3.96807,NaN,NaN,441,12133,441,12133,DMF
KSYQBTUKTGXMDW-ZACQAIPSSA-N,CCCN[C@@H]1C=CO[C@@H]([C@H]1NS(=O)(=O)C)COCc1ccccc1,CCCN[C@@H]1C=CO[C@@H]([C@H]1NS(=O)(=O)C)COCc1ccccc1,233.0,0.002686713,1.2868,-8.5133,4.44666,269.0045528433579,0.003386436,-0.0093,-8.9355,78.29698,0.185,-8.719,4.1379,NaN,NaN,NaN,NaN,NaN,NaN,NaN
NDEGKXSNGPNCKK-UHFFFAOYSA-N,COC(=O)CCCCCc1c(C)c([nH]c1C(c1[nH]c(c(c1CCCCCC(=O)OC)C)C=C1NC(=O)C(=C1CC)C)(C)C)C=C1NC(=O)C(=C1CC)C,COC(=O)Cc1c(C)c([nH]c1C(c1[nH]c(c(c1C(=O)OC)C)C=C1NC(=O)C(=C1CC)C)(C)C)C=C1NC(=O)C(=C1CC)C,313.9,1.088728519,-0.014,-7.1021,5.62973,407.70864322756876,0.273280347,-0.827,-7.0119,84.03815,-0.915,-7.996,6.36487,350.2180470290928,0.6764207645,435.0,NaN,0.0,NaN,Benzene
UAHFMSMIRXGPJJ-UHFFFAOYSA-N,COc1ccc(cc1)Nc1c(F)c(F)c2c(c1F)nc1c(n2)c(F)c(c(c1F)F)F,COc1ccc(cc1)Nc1c(F)c(F)c2c(c1F)nc1c(n2)c(F)c(c(c1F)F)F,400.8,0.129103298,-1.3398,-7.8684,4.47613,457.67515099853694,0.244578259,-2.721,-8.3784,324.53441,-2.448,-8.897,6.19325,NaN,NaN,479,NaN,479,NaN,NaN
PTDMYCBXUMZFGK-UHFFFAOYSA-N,C=CCCc1c2ccccc2cc2c1cccc2,C=CCCc1c2ccccc2cc2c1cccc2,365.9,0.135259252,-0.0659,-7.3261,0.32305,373.55889847997486,0.187904172,-0.619,-7.191,22.58111,-1.047,-8.246,0.25355,NaN,NaN,370.0,NaN,368.0,NaN,Acetonitrile
FTYGOBNBTDRVIU-UHFFFAOYSA-N,Fc1ccc(cc1)C=Cc1ccc2c(c1)ccc1c2C(=C=C(c2ccccc2)c2ccccc2)C(O1)(c1ccccc1)c1ccccc1,Fc1ccc(cc1)C=Cc1ccc2c(c1)ccc1c2C(=C=C(c2ccccc2)c2ccccc2)C(O1)(c1ccccc1)c1ccccc1,326.0,0.306439374,0.1273,-7.3081,2.19292,379.0406554738724,0.296076399,-0.5587,-7.3014,205.69043,-0.934,-8.329,2.49857,NaN,NaN,460.0,NaN,457.0,NaN,THF
XVWNNFBBNVTVGG-UHFFFAOYSA-N,CCCCCCC1C(=O)c2cc(N=Cc3ccc(s3)c3ccc(s3)C=Nc3cc4cccc5c4c(c3)C(=O)C(C5=O)CCCCCC)cc3c2c(C1=O)ccc3,C1C(=O)c2cc(N=Cc3ccc(s3)c3ccc(s3)C=Nc3cc4cccc5c4c(c3)C(=O)C(C5=O)C)cc3c2c(C1=O)ccc3,384.4,2.690300126,-1.1497,-7.8688,2.95049,429.15956526654094,1.447368663,-1.6626,-7.9133,114.98186,-1.786,-9.068,5.12716,404.7406163589575,2.3659022782,429.0,60000,252.0,33000,Chloroform
GUKVFBGAYXULPK-UHFFFAOYSA-N,S=c1n(c2ccccc2)c(c(n1c1ccccc1)P(=S)(c1ccccc1)c1ccccc1)P(c1ccccc1)c1ccccc1,S=c1n(c2ccccc2)c(c(n1c1ccccc1)P(=S)(c1ccccc1)c1ccccc1)P(c1ccccc1)c1ccccc1,276.2,0.321774519,0.5466,-7.3375,5.81574,385.04409442702996,0.000200453,-0.1285,-7.7255,188.23934,-0.641,-7.749,6.97335,NaN,NaN,209,NaN,209,NaN,NaN
SWWKTHAAJLVXEN-UHFFFAOYSA-N,CCOC(=O)c1cc(c2c1ccc(cc2)N)C(=O)OCC,CCOC(=O)c1cc(c2c1ccc(cc2)N)C(=O)OCC,392.2,0.000143157,-0.0571,-7.7234,4.02142,459.3708721952711,0.009153341,-1.2577,-7.9717,24.24214,-1.322,-8.727,5.43593,NaN,NaN,433,2041.7379446695295,433,2041.7379446695295,NaN
YUTWXWIRTONTKT-HNNXBMFYSA-N,Clc1ccccc1[C@H](C#Cc1ccccc1)O,Clc1ccccc1[C@H](C#Cc1ccccc1)O,245.3,0.24208203,0.8355,-8.6632,2.16538,326.876346969427,0.009141556,0.1153,-8.1607,84.79569,-0.404,-9.414,2.26908,NaN,NaN,NaN,NaN,NaN,NaN,NaN
FPKQOOSGOZISDO-UHFFFAOYSA-N,COC(=O)c1ccc(nc1)c1ccc(cn1)c1ccc2c(c1)cccc2,COC(=O)c1ccc(nc1)c1ccc(cn1)c1ccc2c(c1)cccc2,297.3,0.693156768,-0.354,-8.1586,2.43581,330.18428337018287,0.958487798,-1.0694,-8.0452,210.69018,-1.433,-9.07,2.70361,NaN,NaN,335.0,NaN,322.0,NaN,NaN
HWHHTAIHMATDSV-UHFFFAOYSA-N,COC(=O)c1c(Cl)[nH]c2c1CCCc1c2cccc1,COC(=O)c1c(Cl)[nH]c2c1CCCc1c2cccc1,259.0,0.343585616,1.0835,-7.8195,3.23657,357.818754417038,0.00985585,-0.5578,-7.9024,220.67124,-0.402,-8.704,2.9345,NaN,NaN,NaN,NaN,NaN,NaN,NaN
DADCYIFOVFYWRE-UHFFFAOYSA-N,c1ccc(nc1)N(c1ccccn1)Cc1cccc(c1)CN(c1ccccn1)c1ccccn1,c1ccc(nc1)N(c1ccccn1)Cc1cccc(c1)CN(c1ccccn1)c1ccccn1,273.1,0.070421048,1.0809,-7.6475,0.31799,319.2178125785367,0.28958864,0.1012,-7.775,17.38449,-0.383,-8.395,0.97387,NaN,NaN,310.0,NaN,284.78,NaN,NaN
NPWZIDOKSWFSIL-UHFFFAOYSA-N,COC(=O)c1c[nH]c2c1CCc1c2cc(c(c1)Cl)Cl,COC(=O)c1c[nH]c2c1CCc1c2cc(c(c1)Cl)Cl,279.9,0.509249222,0.625,-7.8673,1.28983,351.23002381162513,0.387818593,-0.7986,-8.0007,235.07559,-0.915,-8.835,3.13321,NaN,NaN,NaN,NaN,NaN,NaN,NaN
GIEJUNWVMUFTGT-UHFFFAOYSA-N,Cc1ccc(s1)C(=O)C=Cc1ccc(cc1)N(c1ccccc1)c1ccccc1,Cc1ccc(s1)C(=O)C=Cc1ccc(cc1)N(c1ccccc1)c1ccccc1,338.1,1.273833899,-0.3453,-7.3202,3.78750,377.88539593265364,0.129980898,-1.0106,-7.3602,206.87400,-0.968,-8.077,3.43821,354.6965899277341,1.1471276648,423.0,NaN,299.0,NaN,NaN
SEBFKMXJBCUCAI-UHFFFAOYSA-N,OCC1Oc2ccc(cc2OC1c1ccc(c(c1)OC)O)C1Oc2cc(O)cc(c2C(=O)C1O)O,OCC1Oc2ccc(cc2OC1c1ccc(c(c1)OC)O)C1Oc2cc(O)cc(c2C(=O)C1O)O,283.6,0.08933942,0.2132,-8.1078,1.47267,353.53349987312134,0.000107539,-1.0803,-8.3286,104.04758,-0.856,-8.842,1.92424,NaN,NaN,NaN,NaN,NaN,NaN,NaN
SVXJVBJDYRKJMD-UHFFFAOYSA-N,CCCCCCn1c(=O)c2cc(N=Cc3ccc(s3)c3cccs3)cc3c2c(c1=O)ccc3,Cn1c(=O)c2cc(N=Cc3ccc(s3)c3cccs3)cc3c2c(c1=O)ccc3,339.2,1.428919066,-0.8119,-7.914,5.08516,414.6628709214169,1.015350341,-1.4983,-7.7582,191.50171,-1.608,-9.204,5.71489,358.92711405853413,1.3173144666,387.0,61000,242.0,61000,Chloroform
VKXBWMQUSRFUSP-UHFFFAOYSA-N,N#CC(=Cc1sc(cc1CO[Si](C(C)(C)C)(c1ccccc1)c1ccccc1)C=C1C=C(OC(=C1)c1ccccc1)c1ccccc1)C(=O)O,N#CC(=Cc1sc(cc1CO[Si](C(C)(C)C)(c1ccccc1)c1ccccc1)C=C1C=C(OC(=C1)c1ccccc1)c1ccccc1)C(=O)O,417.2,1.786972324,-0.9594,-7.0914,8.27691,493.1750135461562,0.697582948,-1.4519,-7.2278,326.86539,-1.48,-8.344,8.58791,NaN,NaN,564,NaN,564,NaN,NaN
UZTMHTDKWAVBOP-UHFFFAOYSA-N,CCOC(=O)c1cc(n2c1cccn2)C(=O)N,CCOC(=O)c1cc(n2c1cccn2)C(=O)N,333.0,0.074600578,-0.2095,-8.4138,7.75628,387.8141958257856,0.196112276,-1.5284,-8.4374,72.70756,-1.391,-9.47,4.86982,NaN,NaN,437.0,NaN,365.0,NaN,ethanol
JAEKURPWLKPQMZ-UHFFFAOYSA-N,Nc1cccc2c1c1ncccc1cc2,Nc1cccc2c1c1ncccc1cc2,331.0,0.167987935,0.3827,-7.1777,1.40499,364.23090013367704,0.187748987,-0.3958,-7.3873,24.78446,-0.772,-7.959,1.51077,NaN,NaN,401,8920,401,8920,NaN
SZZAQXAYZOSMAE-UHFFFAOYSA-N,Sc1ccc(s1)c1ccc(s1)n1c2ccccc2c2c1cccc2,Sc1ccc(s1)c1ccc(s1)n1c2ccccc2c2c1cccc2,289.6,0.845720352,0.1128,-7.8739,1.82254,381.13802153551694,0.558313234,-0.4975,-7.3797,351.82376,-1.201,-8.228,2.21076,304.55463770385524,0.6675894872,409,NaN,409,NaN,NaN
GGOZGYRTNQBSSA-UHFFFAOYSA-N,O=c1[nH]cccc1O,O=c1[nH]cccc1O,266.8,0.197517538,1.0057,-8.0795,3.62404,316.6092911274353,0.213924343,-0.6933,-8.5669,43.61896,-0.502,-8.902,3.46704,NaN,NaN,561.0,NaN,543.0,NaN,NaN
CAAOQYMYFICUBJ-UHFFFAOYSA-N,CCN(c1ccc2c(c1)OC1=NC(n3c(C1=C2)nc1c3cccc1)c1ccccc1)CC,CCN(c1ccc2c(c1)OC1=NC(n3c(C1=C2)nc1c3cccc1)c1ccccc1)CC,348.2,1.366307025,-0.0454,-7.1389,6.09322,421.4282746618071,0.859023716,-1.0407,-7.2372,86.63889,-0.92,-8.071,7.00265,369.0005744322603,1.1416449758,498.0,72900,436.0,51200,NaN