inchikey,smi_pre,smi_post,lambda_sTDA (nm),f1_sTDA,lumo_dft,homo_dft,dmom_dft (D),lambda_z (nm),f1_z,lumo_z,homo_z,dmom_z (D),lumo_mopac,homo_mopac,dmom_mopac (D),lambda_tddft (nm),f1_tddft,lambda_exp_max (nm),epsilon_exp_max ,lambda_exp_min (nm),epsilon_exp_min ,solvent
ZYJJJVRMXBGVEG-UHFFFAOYSA-N,Brc1ccc(cc1)c1nn(c2c1c1[nH][nH]c(=O)c1cn2)c1ccccc1,Brc1ccc(cc1)c1nn(c2c1c1[nH][nH]c(=O)c1cn2)c1ccccc1,286.2,0.499661363,-0.0188,-8.2556,2.53316,333.91919850660827,0.221683595,-1.0803,-8.3041,423.77297,-1.237,-9.046,2.18509,NaN,NaN,384.5,NaN,384.5,NaN,DMSO
UVEBCFCQGQQUQC-UHFFFAOYSA-N,CCc1ccc(c(c1)I)S(=O)(=O)NC,CCc1ccc(c(c1)I)S(=O)(=O)NC,258.3,0.005404872,0.5838,-8.9486,4.82529,NaN,NaN,NaN,Nan,NaN,-0.672,-8.817,5.05998,NaN,NaN,NaN,NaN,NaN,NaN,NaN
PZINFSHCXYXHOY-UHFFFAOYSA-N,Ic1cncc(c1)C(=O)ON1C(=O)CCC1=O,Ic1cncc(c1)C(=O)ON1C(=O)CCC1=O,271.6,0.003329499,-0.3319,-9.3799,3.08463,NaN,NaN,NaN,Nan,NaN,-1.429,-9.178,2.94821,NaN,NaN,676.0,259900,352.0,209200,NaN
BEHOWYHVYZDRNC-UHFFFAOYSA-N,Clc1ccc(cc1)C1CC(=NN1c1ccccc1)c1ccc2c(c1)C1(c3c2cccc3)c2ccccc2c2c1cccc2,Clc1ccc(cc1)C1CC(=NN1c1ccccc1)c1ccc2c(c1)C1(c3c2cccc3)c2ccccc2c2c1cccc2,336.1,1.435389446,0.1519,-7.0893,2.77895,352.6285506413642,0.746338121,-0.6959,-7.6153,298.81684,-0.894,-8.216,3.52052,NaN,NaN,388,NaN,388,NaN,NaN
NYSBYBIBEHVNAB-UHFFFAOYSA-N,COc1cc(OC)cc(c1)N=Nc1ccc(c(c1)C=Nc1ccccc1O)O,COc1cc(OC)cc(c1)N=Nc1ccc(c(c1)C=Nc1ccccc1O)O,426.4,0.000142624,-0.4546,-8.0221,2.96250,528.2667166830151,1.461e-06,-1.4087,-8.0643,43.79568,-1.127,-8.89,2.16363,NaN,NaN,483.0,NaN,354.0,NaN,NaN
XOPFWRMSSLISEL-UHFFFAOYSA-N,c1ccc2c(c1)C=C(C2)c1ccc(cc1)c1nnc(o1)c1c2ccccc2cc2c1cccc2,c1ccc2c(c1)C=C(C2)c1ccc(cc1)c1nnc(o1)c1c2ccccc2cc2c1cccc2,369.7,0.645946574,-0.5145,-7.5972,3.76460,397.64014883099316,0.975913211,-0.995,-7.3639,99.95566,-1.548,-8.604,5.17173,NaN,NaN,345,NaN,345,NaN,NaN
VNJOAFGSUGPCOV-UHFFFAOYSA-N,CCCCCCC(n1c(=O)c2c(c1c1cccs1)c(=O)n(c2c1ccc(s1)Br)C(CCCCCC)C)C,C(n1c(=O)c2c(c1c1cccs1)c(=O)n(c2c1ccc(s1)Br)C(C)C)C,429.5,0.785699931,-1.029,-7.2506,2.05070,436.256855754763,0.551722158,-1.6299,-7.8727,424.92960,-1.434,-8.361,1.65809,NaN,NaN,559.0,NaN,520.0,NaN,NaN
ZOPPVXIDMZMINH-UHFFFAOYSA-N,OCC(=O)CCc1ccc(cc1)C#N,OCC(=O)CCc1ccc(cc1)C#N,248.5,0.000358599,0.3129,-9.5636,5.80581,328.0005248822848,2.1425e-05,-0.4661,-9.1992,55.86011,-0.952,-10.198,1.94577,NaN,NaN,NaN,NaN,NaN,NaN,NaN
KCOPIHSPRGJNGK-UHFFFAOYSA-N,Cc1ccc(cc1)C(=O)CC(=O)c1ccncc1,Cc1ccc(cc1)C(=O)CC(=O)c1ccncc1,310.6,0.005051449,-0.4877,-9.395,3.11566,369.22036451906985,0.001889108,-1.2833,-9.2115,80.57005,-1.016,-9.871,3.65304,NaN,NaN,348,22387.21138568338,348,22387.21138568338,NaN
RFEPTZCPWDTKFV-UHFFFAOYSA-N,COc1ccc(cc1)c1c(F)c(F)c(c(c1F)F)c1ccc(cc1)OC,COc1ccc(cc1)c1c(F)c(F)c(c(c1F)F)c1ccc(cc1)OC,251.3,0.729096964,0.7621,-8.2028,1.21830,307.7294574472665,0.020321696,-0.6887,-8.4391,14.24090,-1.014,-9.015,2.32947,NaN,NaN,282,NaN,282,NaN,dichloromethane
MAIVOMIKILFPRH-UHFFFAOYSA-N,Cc1ccc(cc1)C1(c2ccc(cc2)C)c2cc(ccc2c2c1cccc2)c1sc(c2c1cccc2)c1cccs1,Cc1ccc(cc1)C1(c2ccc(cc2)C)c2cc(ccc2c2c1cccc2)c1sc(c2c1cccc2)c1cccs1,383.1,0.976000054,-0.1859,-7.0264,0.68047,476.3127099712011,0.465049585,-0.8556,-6.8093,354.45997,-1.257,-8.221,0.77904,NaN,NaN,430,NaN,430,NaN,CH 2 Cl
FEJPWLNPOFOBSP-UHFFFAOYSA-N,OCCN(c1ccc(cc1)N=Nc1ccc(cc1Cl)[N+](=O)[O-])CC,OCCN(c1ccc(cc1)N=Nc1ccc(cc1Cl)[N+](=O)[O-])CC,457.2,0.001184875,-1.2069,-7.7906,8.39613,529.8470017329216,0.000343118,-2.7158,-8.1884,348.70273,-1.872,-8.616,8.68763,NaN,NaN,525,34062,525,34062,NaN
ZYNUABOETVEQPO-UHFFFAOYSA-N,C1=CCc2c(C1)cc1c(c2C=Nc2ccc3c(c2)cccc3)cccc1,C1=CCc2c(C1)cc1c(c2C=Nc2ccc3c(c2)cccc3)cccc1,323.0,0.577940388,-0.1311,-7.8323,1.18185,326.4460200250228,0.232001601,-0.351,-7.7197,17.22522,-0.776,-8.717,1.30408,NaN,NaN,405.0,17770,261.0,111140,NaN
KQKOJJUKSXGKIT-NSHDSACASA-N,O=C[C@@](c1ccccc1Br)(CC[N+](=O)[O-])C,O=C[C@@](c1ccccc1Br)(CC[N+](=O)[O-])C,294.7,1.9503e-05,0.3744,-9.3708,3.14557,416.3337757068625,1.0072e-05,-2.73,-9.4897,179.40117,-0.778,-9.945,7.04502,NaN,NaN,NaN,NaN,NaN,NaN,NaN
PREFSXPMKAGVQY-UHFFFAOYSA-N,N#CC(=Cc1ccc(cc1)c1nc2c([nH]1)c(ccc2c1cccc(c1)N(C)C)c1cccc(c1)N(C)C)C(=O)O,N#CC(=Cc1ccc(cc1)c1nc2c([nH]1)c(ccc2c1cccc(c1)N(C)C)c1cccc(c1)N(C)C)C(=O)O,338.6,1.41620462,-1.1871,-7.2577,1.23320,379.38861201194516,0.804917103,-1.6286,-7.5856,304.29531,-1.755,-8.105,1.84551,NaN,NaN,274,NaN,274,NaN,Chloroform
XXKJTBSGIBXEFR-UHFFFAOYSA-N,CCn1c2ccccc2c2c1cc(cc2)c1ccc(cc1)C=Cc1ccc(cc1)C(=C(c1ccccc1)c1ccccc1)c1ccccc1,CCn1c2ccccc2c2c1cc(cc2)c1ccc(cc1)C=Cc1ccc(cc1)C(=C(c1ccccc1)c1ccccc1)c1ccccc1,346.5,2.203596377,-0.1272,-7.2448,1.78030,324.5659644123133,1.467953587,-0.0672,-7.3568,31.56283,-0.559,-8.258,2.15589,352.31790233082165,2.0897591923,408.0,NaN,365.0,NaN,NaN
MEXZEQCYQHTJMC-UHFFFAOYSA-N,CCn1c2ccc(cc2c2c1cccc2)c1c2ccccc2c(c2c1cccc2)c1ccc2c(c1)c1ccccc1n2CC,CCn1c2ccc(cc2c2c1cccc2)c1c2ccccc2c(c2c1cccc2)c1ccc2c(c1)c1ccccc1n2CC,375.3,0.42750678,0.0814,-7.1426,2.56230,390.25558201291676,0.418369562,-0.5345,-6.997,23.35335,-0.886,-8.04,0.02729,NaN,NaN,456.0,NaN,355.0,NaN,NaN
BJHVKOQVWZSTJX-UHFFFAOYSA-N,CCCCN1c2ccc(cc2Oc2c1cccc2)c1ccc(s1)C=C(C(=O)O)C#N,CN1c2ccc(cc2Oc2c1cccc2)c1ccc(s1)C=C(C(=O)O)C#N,370.4,1.23041949,-0.9876,-7.3117,6.42132,432.15126666261295,0.816265391,-1.6407,-7.7181,298.74445,-1.827,-8.065,6.12761,407.2934299439554,1.0900069117,455,NaN,455,NaN,NaN
VTADCZUSUOUHJN-UHFFFAOYSA-N,O=c1cc(C)c2c(o1)ccc1c2cc(cc1)c1nnn(c1)Cc1ccccc1,O=c1cc(C)c2c(o1)ccc1c2cc(cc1)c1nnn(c1)Cc1ccccc1,318.0,0.393446536,-0.1904,-8.0353,10.08705,369.7709466313858,0.427243301,-1.1647,-7.9719,159.38783,-1.273,-8.906,10.17702,NaN,NaN,352.0,6300,349.0,18000,NaN
ILTFZDZKZMQMKK-UHFFFAOYSA-N,N#CC(=C1C=C(C=Cc2cc(c3ccccc3)c(cc2c2ccccc2)C=Cc2ccc(cc2)N(C)C)CC(C1)(C)C)C#N,N#CC(=C1C=C(C=Cc2cc(c3ccccc3)c(cc2c2ccccc2)C=Cc2ccc(cc2)N(C)C)CC(C1)(C)C)C#N,382.7,2.738496357,-1.1891,-7.1098,12.68587,372.4367630084219,1.254303621,-1.3425,-7.6247,184.93943,-1.572,-8.139,11.92641,423.9935469846093,2.1891463616,460.0,NaN,425.0,NaN,DMF
DDFHBQSCUXNBSA-UHFFFAOYSA-N,OC(=O)c1ccc(s1)c1ccc(s1)C(=O)O,OC(=O)c1ccc(s1)c1ccc(s1)C(=O)O,300.7,0.81341486,-0.6002,-8.5555,2.64658,415.77531323106524,0.764984023,-2.0182,-8.4164,88.09403,-2.003,-9.477,3.78235,325.7341591814609,0.7022848591,397,NaN,397,NaN,NaN
HGRVMBLQKABVJF-UHFFFAOYSA-N,COc1ccc(cc1)CNC1=C(Br)C(=O)OC1OCc1ccccc1,COc1ccc(cc1)CNC1=C(Br)C(=O)OC1OCc1ccccc1,245.1,0.037988039,0.9,-8.2733,8.19264,324.5659644123133,0.000305781,-0.5987,-8.7449,449.41365,-0.43,-8.767,8.74551,NaN,NaN,276,NaN,276,NaN,NaN
UNRIYCIDCQDGQE-UHFFFAOYSA-N,Fc1nc(Cl)c2c(n1)nc[nH]2,Fc1nc(Cl)c2c(n1)nc[nH]2,255.9,0.005831914,-0.0799,-9.6836,6.41913,307.8822905525296,0.228357706,-1.241,-9.3885,68.91131,-1.699,-10.366,6.82813,NaN,NaN,440,NaN,440,NaN,NaN
ZPSYJJFDDAIAQH-UHFFFAOYSA-N,Oc1ccc(c2c1cccc2)N=Nc1ccc2c(c1S(=O)(=O)O)cccc2,Oc1ccc(c2c1cccc2)N=Nc1ccc2c(c1S(=O)(=O)O)cccc2,457.0,0.029875733,-1.1646,-7.9769,5.84976,525.802368131907,1.6443e-05,-1.4709,-7.8364,97.66759,-1.704,-8.8,4.39406,NaN,NaN,495,NaN,495,NaN,NaN
FHKOSYPSIZGMPI-UHFFFAOYSA-N,CCn1c2ccc(cc2c2c1cccc2)C=Cc1ccc2c(c1)c1ccccc1n2CC,CCn1c2ccc(cc2c2c1cccc2)C=Cc1ccc2c(c1)c1ccccc1n2CC,324.5,1.114776109,0.6148,-6.881,0.92277,331.5085518863734,0.069442843,0.0401,-7.2265,25.44479,-0.296,-7.928,1.01536,334.94757134547075,0.9939225165,342.0,NaN,308.0,NaN,NaN
LEWXEIYCLPHGQQ-UHFFFAOYSA-N,COc1ccc(cc1)C=Cc1cc(C=Cc2ccc(cc2)OC)nc(n1)I,COc1ccc(cc1)C=Cc1cc(C=Cc2ccc(cc2)OC)nc(n1)I,326.1,2.270705969,-0.4957,-7.8319,2.74248,NaN,NaN,NaN,Nan,NaN,-1.041,-8.769,2.44292,NaN,NaN,374,21387,374,21387,dichloromethane
BNPOXJXDDJPDNW-UHFFFAOYSA-N,O=C(c1cc(C(=O)CC(=O)c2ccc(cc2)C(C)(C)C)c(nc1C)C)CC(=O)c1ccc(cc1)C(C)(C)C,O=C(c1cc(C(=O)CC(=O)c2ccc(cc2)C(C)(C)C)c(nc1C)C)CC(=O)c1ccc(cc1)C(C)(C)C,292.2,0.00082756,-0.1739,-9.1457,4.93425,357.5092226225596,0.000383878,-1.1896,-8.5828,231.79942,-0.826,-9.695,2.64467,NaN,NaN,344,39810.71705534969,344,39810.71705534969,NaN
TYNLGDBUJLVSMA-UHFFFAOYSA-N,CC(=O)Oc1cc(cc2c1C(=O)c1c(C2=O)cccc1OC(=O)C)C(=O)O,CC(=O)Oc1cc(cc2c1C(=O)c1c(C2=O)cccc1OC(=O)C)C(=O)O,360.3,0.005706172,-1.4427,-9.7544,4.13972,411.6341248522698,0.00010023,-2.3152,-9.4756,91.28949,-2.002,-10.002,3.67392,NaN,NaN,NaN,NaN,NaN,NaN,NaN
FLDMOUZUNIYLLQ-UHFFFAOYSA-N,N#Cc1c(sc(c1C#N)c1ccc(cc1)N(C)C)c1ccc(cc1)N(C)C,N#Cc1c(sc(c1C#N)c1ccc(cc1)N(C)C)c1ccc(cc1)N(C)C,322.7,1.10581584,0.0554,-7.3276,9.39186,363.1640257923364,0.419773505,-0.8197,-7.8166,62.05491,-1.113,-8.321,7.01861,351.8979167520207,1.0083460001,412,38904.51449942805,412,38904.51449942805,NaN
ZXHZWRZAWJVPIC-UHFFFAOYSA-N,O=C=Nc1c(N=C=O)ccc2c1cccc2,O=C=Nc1c(N=C=O)ccc2c1cccc2,302.4,0.117092949,-0.0609,-8.2234,4.11378,383.37723687539784,0.001295671,-0.9835,-8.0692,132.62834,-1.219,-8.744,3.38595,NaN,NaN,397.0,NaN,380.0,NaN,NaN
VYPMJYBNRKUNAG-UHFFFAOYSA-N,Cn1c2ccccc2c(c1C)N=Nc1nc2c(s1)cccc2,Cn1c2ccccc2c(c1C)N=Nc1nc2c(s1)cccc2,434.2,0.001245876,-0.4519,-7.6006,4.69567,527.8169365921824,0.006035872,-1.3598,-7.5902,111.55781,-1.081,-8.439,5.34822,NaN,NaN,507.0,NaN,453.0,NaN,Chloroform
LDKUBJYSUWTHCJ-UHFFFAOYSA-N,Fc1c(F)c(F)c2c(c1F)cc1c(n2)onc1c1ccccc1,Fc1c(F)c(F)c2c(c1F)cc1c(n2)onc1c1ccccc1,315.7,0.128926017,-0.9697,-8.8821,4.92670,338.20021387207765,0.114828558,-1.9414,-9.295,280.19881,-2.157,-9.799,5.18257,NaN,NaN,342.0,NaN,0.0,NaN,Ethanol
NLULILUQLVWQIU-UHFFFAOYSA-N,CCCCCCCCN(c1ccc(cc1)C1=C(O)C(=O)C1=O)CCCCCCCC,CN(c1ccc(cc1)C1=C(O)C(=O)C1=O)C,331.3,0.000901624,-0.0666,-7.6623,8.11309,383.25872768316435,0.0002973,-1.3752,-8.2187,174.44619,-1.033,-8.127,5.15644,NaN,NaN,570.0,38000,385.0,38000,barium sulfate
MIWGXPAPNZZUFL-UHFFFAOYSA-N,CCOC(=O)c1cc2c([nH]1)c1[nH]c(=O)c(cc1CC2)S(=O)(=O)c1ccccc1,CCOC(=O)c1cc2c([nH]1)c1[nH]c(=O)c(cc1CC2)S(=O)(=O)c1ccccc1,348.3,0.870674953,-0.6069,-8.0274,9.14305,445.50556379986944,0.637119447,-1.9514,-8.2675,159.38692,-1.486,-9.051,8.55752,366.09145483579726,0.6987950056,439,44091,439,44091,NaN
QPVTVRNRQWXZCT-UHFFFAOYSA-N,CCC1=C(C)C(=O)NC1=Cc1[nH]c(c(c1C)CCCCCC(=O)O)C(c1[nH]c(c(c1CCCCCC(=O)O)C)C=C1NC(=O)C(=C1CC)C)(C)C,C1=C(C)C(=O)NC1=Cc1[nH]c(c(c1C)C(=O)O)C(c1[nH]c(c(c1C(=O)O)C)C=C1NC(=O)C(=C1CC)C)(C)C,307.7,1.681099938,0.049,-7.3402,0.67977,418.30026452599077,0.112025088,-0.8223,-7.3189,82.96818,-0.939,-8.319,1.41058,343.7988880826316,1.3287835608,443.0,NaN,392.0,NaN,Benzene
RXAFQUNTNNAGFK-UHFFFAOYSA-N,Cc1nn(c2c1c1nc3c(n1c(c2)c1ccccc1)nccc3)c1ccccc1,Cc1nn(c2c1c1nc3c(n1c(c2)c1ccccc1)nccc3)c1ccccc1,301.4,0.119276048,0.2786,-7.876,2.84917,364.7666913960096,0.170692389,-0.5855,-7.5753,53.21838,-0.948,-8.697,3.38374,NaN,NaN,287.0,NaN,209.0,NaN,NaN
YPFRXLIHLVVGHY-UHFFFAOYSA-N,O=C1OC(=C2C1=C(NC2=O)c1ccccc1)c1ccccc1,O=C1OC(=C2C1=C(NC2=O)c1ccccc1)c1ccccc1,387.1,0.894185535,-1.1961,-7.7787,2.32657,421.4282746618071,0.794576632,-1.7254,-7.9729,15.37604,-1.667,-8.851,2.18501,420.08603716622434,0.6173395704,487.0,NaN,453.0,NaN,dimethyl sulfoxide
ADWARDCFXWEPAN-UHFFFAOYSA-N,O=C(c1cccc(n1)C(=O)CC(=O)c1ccc(cc1)Cl)CC(=O)c1ccc(cc1)Cl,O=C(c1cccc(n1)C(=O)CC(=O)c1ccc(cc1)Cl)CC(=O)c1ccc(cc1)Cl,308.7,5.0064e-05,-0.3472,-9.4318,1.49297,366.491866407046,0.000416112,-1.3287,-9.6454,183.75018,-1.3,-10.186,0.50603,NaN,NaN,342,38904.51449942805,342,38904.51449942805,NaN
KSCUJBYNIWKKQF-UHFFFAOYSA-N,Cc1cc(C(c2ccccc2)c2ccccc2)c(c(c1)c1nc2c(n1C)cccc2)O,Cc1cc(C(c2ccccc2)c2ccccc2)c(c(c1)c1nc2c(n1C)cccc2)O,289.7,0.627389461,0.4872,-7.8223,4.13418,334.27931627259005,0.468672227,-0.3781,-7.7725,74.27553,-0.62,-8.621,4.5536,NaN,NaN,223,NaN,223,NaN,NaN
VXGCIHLEMBDKCU-UHFFFAOYSA-N,CC(C(c1ccc(cc1)O)C)O,CC(C(c1ccc(cc1)O)C)O,246.7,0.042642572,1.5457,-8.3905,1.03707,283.846608071208,0.036568034,0.5148,-8.4483,55.81624,-0.033,-9.054,0.50054,NaN,NaN,222.0,NaN,222.0,NaN,NaN
ZHRSXIIBQKCYBW-UHFFFAOYSA-N,CN1C(=O)C(=C(C1=O)c1c[nH]c2c1cccc2)c1ccc2c3c1ccc1c3c(cc2)ccc1,CN1C(=O)C(=C(C1=O)c1c[nH]c2c1cccc2)c1ccc2c3c1ccc1c3c(cc2)ccc1,381.2,0.440397529,-0.622,-7.3899,3.48688,452.4970744726411,0.30299047,-1.5751,-7.348,139.75574,-1.557,-8.338,4.58438,NaN,NaN,439,NaN,439,NaN,NaN
HYALJCZMMWFDGN-UHFFFAOYSA-N,CSCC(=O)CC(c1ccc(cc1)C(=O)OC)O,CSCC(=O)CC(c1ccc(cc1)C(=O)OC)O,273.4,0.00600493,0.403,-8.6567,2.34569,326.3600905646319,0.00057493,-0.808,-9.4201,62.18999,-0.903,-8.685,2.28605,NaN,NaN,NaN,NaN,NaN,NaN,NaN
FVDKZHMRQMVTFU-UHFFFAOYSA-N,N#CC(=Cc1cccc(c1)c1ccc(s1)c1ccc2c3c1ccc1c3c(cc2)ccc1)C(=O)O,N#CC(=Cc1cccc(c1)c1ccc(s1)c1ccc2c3c1ccc1c3c(cc2)ccc1)C(=O)O,346.7,0.895006924,-0.9058,-7.4242,2.15877,362.7390240067398,0.336701649,-1.3718,-7.3277,280.88782,-1.539,-8.403,2.92767,NaN,NaN,394.6,37600.0,280.0,32600.0,THF
OPXMFDMZKMUVDU-UHFFFAOYSA-N,N#CC(=Cc1cn(nc1c1ccc(cc1)[N+](=O)[O-])c1ccccc1)C#N,N#CC(=Cc1cn(nc1c1ccc(cc1)[N+](=O)[O-])c1ccccc1)C#N,317.3,0.000121922,-1.2526,-9.0932,7.52915,424.4580568486945,0.00022385,-2.6917,-8.7091,179.13127,-1.963,-9.707,7.99686,NaN,NaN,356.0,NaN,302.0,NaN,DMSO
QBPFLULOKWLNNW-UHFFFAOYSA-N,Oc1cccc2c1C(=O)c1c(C2=O)cccc1O,Oc1cccc2c1C(=O)c1c(C2=O)cccc1O,356.7,0.000889541,-1.4335,-8.8774,0.32521,368.45229838188305,0.47215994,-2.1303,-9.0731,50.00718,-1.913,-9.568,0.72669,NaN,NaN,702.7,NaN,428.0,NaN,NaN
NBYRSOPKYRUHDE-UHFFFAOYSA-N,OC(c1ccc(cc1)F)CC(=O)C,OC(c1ccc(cc1)F)CC(=O)C,258.9,5.688e-06,1.4306,-9.0027,1.94306,331.95233843508345,1.2272e-05,0.0608,-8.9574,53.73853,-0.188,-9.808,2.23043,NaN,NaN,254,NaN,254,NaN,NaN
ZFPPRUDDBOUEMN-UHFFFAOYSA-N,CCCCCCCCC1(CCCCCCCC)c2cc3nc([nH]c3cc2c2c1cccc2)c1ccc(cc1)C(F)(F)F,C1(C)c2cc3nc([nH]c3cc2c2c1cccc2)c1ccc(cc1)C(F)(F)F,306.7,1.296508892,-0.1427,-7.7209,3.29539,381.02089245698727,0.848518778,-0.9743,-7.4324,471.05131,-1.395,-8.741,4.51062,314.19425004242026,1.2349485635,359.0,NaN,348.0,NaN,DMSO
DUMBLIJHFOPDGA-UHFFFAOYSA-N,CN(c1ccc(cc1)c1[nH]c(=O)c2c1c(=O)[nH]c2c1ccccc1)C,CN(c1ccc(cc1)c1[nH]c(=O)c2c1c(=O)[nH]c2c1ccccc1)C,411.9,1.051950194,-0.7338,-6.9602,4.34269,443.4341859996555,0.723353516,-1.4814,-7.5364,63.23456,-1.286,-8.159,4.00647,451.0156166214603,0.7619697241,544,NaN,544,NaN,dimethylsufoxide
LMWMNIPEZSAYSK-UHFFFAOYSA-N,CCCCCc1ccc(cc1)C#Cc1cc(C#Cc2ccc(cc2)CCCCC)c2c3c1ccc1c3c(cc2)c(cc1C#Cc1ccc(cc1)CCCCC)C(=O)c1ccccc1,Cc1ccc(cc1)C#Cc1cc(C#Cc2ccc(cc2)C)c2c3c1ccc1c3c(cc2)c(cc1C#Cc1ccc(cc1)C)C(=O)c1ccccc1,423.5,1.510458549,-0.9956,-7.034,3.74775,433.66281359042904,0.976219458,-1.0443,-6.8545,122.00649,-1.653,-8.129,4.03793,438.8510300482778,1.2914862319,245,NaN,245,NaN,NaN
WDVSHHCDHLJJJR-UHFFFAOYSA-N,Nc1ccc2c(c1)nc1c(c2)ccc(c1)N,Nc1ccc2c(c1)nc1c(c2)ccc(c1)N,350.0,0.060833808,0.0873,-7.3177,1.01307,375.5958752060093,0.304789579,-0.8036,-7.5177,20.63823,-0.99,-8.174,1.92403,NaN,NaN,395,NaN,395,NaN,NaN
MLMDWPQEDOPHEY-UHFFFAOYSA-N,CSc1ccccc1N=Nc1nc2c(s1)cccc2,CSc1ccccc1N=Nc1nc2c(s1)cccc2,485.1,0.0125515,-1.1691,-8.1378,1.78461,565.3634218217221,0.003300689,-1.6179,-8.2556,40.57687,-1.642,-8.303,1.46662,NaN,NaN,428.0,NaN,328.0,NaN,Methanol
HKNJITJDEGHCBV-UHFFFAOYSA-N,Clc1ccc(cc1)C=NNC(=O)c1ccc(cc1)Cn1c2ccccc2c2c1cccc2,Clc1ccc(cc1)C=NNC(=O)c1ccc(cc1)Cn1c2ccccc2c2c1cccc2,288.7,0.068655943,-0.0133,-7.7801,2.80904,315.24077906306553,0.019901938,-0.8865,-7.9585,236.48176,-0.97,-8.444,2.10411,NaN,NaN,297,NaN,297,NaN,NaN
DSQVNOLEQZMEPK-UHFFFAOYSA-N,Oc1cccc2c1nc(cc2)c1nc2c(n1C)cccc2,Oc1cccc2c1nc(cc2)c1nc2c(n1C)cccc2,316.5,0.207717849,-0.2258,-8.0316,1.03726,364.55218584388024,0.652685343,-1.0472,-7.8004,32.92279,-1.209,-8.83,1.911,NaN,NaN,321.0,NaN,257.0,NaN,NaN
PDWOWEBFUHHCNW-UHFFFAOYSA-N,c1ccc(cc1)c1[nH]c(nc1c1ccccc1)c1ccc(cc1)c1cncc2c1cccc2,c1ccc(cc1)c1[nH]c(nc1c1ccccc1)c1ccc(cc1)c1cncc2c1cccc2,299.7,1.156995086,0.1379,-7.5023,3.28711,377.4252615083825,0.609961948,-0.4529,-7.0688,56.62735,-0.941,-8.508,4.20011,309.5271445207695,1.1105406659,442.0,35500.0,333.0,35500.0,NaN
QCBCKPRTUQLFGN-UHFFFAOYSA-N,N#CC(=CC=C1N(C)c2c(C1(C)C)cccc2)C(=O)c1ccccc1,N#CC(=CC=C1N(C)c2c(C1(C)C)cccc2)C(=O)c1ccccc1,334.4,1.605328597,-0.4581,-7.6172,6.01895,394.1010756691153,0.908195886,-1.0908,-7.7486,77.80050,-1.119,-8.411,6.32675,369.82607907304833,1.1187998665,488.0,59429.21586155727,446.0,37068.0721782576,NaN
WXNWJNYWPLFRKO-UHFFFAOYSA-N,COc1ccc2c(c1)sc(n2)N=Nc1c(C)[nH]c2c1cccc2,COc1ccc2c(c1)sc(n2)N=Nc1c(C)[nH]c2c1cccc2,426.5,0.000325071,-0.3896,-7.4335,2.82393,516.1706844525547,0.016145819,-1.2565,-7.6147,90.30247,-1.138,-8.447,4.84431,NaN,NaN,504.0,NaN,443.0,NaN,Chloroform
IRQGQYRVLKOHAU-UHFFFAOYSA-N,Brc1ccc(cc1)CN(c1ccc2c(c1)C(=O)c1c(C2=O)cccc1)Cc1ccc(cc1)Br,Brc1ccc(cc1)CN(c1ccc2c(c1)C(=O)c1c(C2=O)cccc1)Cc1ccc(cc1)Br,351.6,0.069904774,-0.9416,-8.2329,2.06486,403.3318100374225,0.000405987,-1.876,-8.6215,244.65018,-1.539,-9.127,2.68203,NaN,NaN,308,NaN,308,NaN,NaN
SIWRLLANPPOLDD-UHFFFAOYSA-N,c1ccc(cc1)N(c1ccccc1)c1ccc(cc1)C=Cc1ccc(cc1)c1cc(nc(c1)c1ccccn1)c1ccccn1,c1ccc(cc1)N(c1ccccc1)c1ccc(cc1)C=Cc1ccc(cc1)c1cc(nc(c1)c1ccccn1)c1ccccn1,344.2,2.014087024,-0.1205,-7.0546,0.99909,336.6391485351715,1.025117964,-0.4452,-7.1763,169.55145,-0.921,-7.944,1.33606,354.61543062448715,1.8906217845,296.0,NaN,290.0,NaN,THF
CQYRGGDJHLJOAG-UHFFFAOYSA-N,c1csc(c1)n1ccc2c1nccc2,c1csc(c1)n1ccc2c1nccc2,281.2,0.220751152,0.7183,-7.8033,1.66195,326.18836728625007,0.367021342,-0.1673,-7.7128,67.24139,-0.796,-8.521,1.15544,NaN,NaN,422.0,NaN,231.0,NaN,NaN
PFZSHFACXYZFMV-UHFFFAOYSA-N,Clc1ccc(cc1)C=Cc1ccc(cc1)c1nc(c(n1c1ccc(cc1)Cl)c1ccccc1)c1ccccc1,Clc1ccc(cc1)C=Cc1ccc(cc1)c1nc(c(n1c1ccc(cc1)Cl)c1ccccc1)c1ccccc1,324.4,1.813199753,-0.1744,-7.4952,3.13088,360.9438090407676,0.505670024,-0.6321,-7.3347,412.30982,-0.984,-8.585,3.4095,332.0056582295401,1.7017607185,331,NaN,331,NaN,NaN
QAUUDNIGJSLPSX-UHFFFAOYSA-N,CC(=O)Oc1ccc(cc1)[N+](=O)[O-],CC(=O)Oc1ccc(cc1)[N+](=O)[O-],314.7,1.9121e-05,-0.4839,-9.9014,5.71273,422.43338468655423,2.517e-06,-2.4742,-9.9023,73.95629,-1.36,-10.493,6.71102,NaN,NaN,400,NaN,400,NaN,NaN
DLEFJDAQQYMFJM-UHFFFAOYSA-N,N#Cc1ccc(cc1)Cn1c(C=Cc2ccccc2)nc(c1c1ccco1)c1ccco1,N#Cc1ccc(cc1)Cn1c(C=Cc2ccccc2)nc(c1c1ccco1)c1ccco1,314.5,1.291474412,0.0312,-7.333,4.57135,412.45574985197493,0.477402695,-0.6086,-6.9103,104.65253,-1.027,-8.348,4.50494,337.0692793117458,0.9719273222,351,NaN,351,NaN,NaN
SMWRYEPYGQFNIQ-UHFFFAOYSA-N,Cc1cc(C=Nc2cccc3c2nc(cc3)c2nc3c([nH]2)cccc3)c(c(c1)C)O,Cc1cc(C=Nc2cccc3c2nc(cc3)c2nc3c([nH]2)cccc3)c(c(c1)C)O,335.8,0.373468092,-0.4372,-7.9612,1.87485,386.2436087398868,0.228566042,-1.0472,-7.7038,66.59379,-1.371,-8.648,1.75494,NaN,NaN,163.0,NaN,125.0,NaN,NaN
BHEOUCKQXHPGQK-UHFFFAOYSA-N,FC(c1cc(C#Cc2c3cccc4c3c(c3=C(c5c(c23)cccc5)c2ccccc2)ccc4)cc(c1)C(F)(F)F)(F)F,FC(c1cc(C#Cc2c3cccc4c3c(c3=C(c5c(c23)cccc5)c2ccccc2)ccc4)cc(c1)C(F)(F)F)(F)F,483.4,0.298509194,-1.3129,-7.2814,3.50484,487.55091783524836,0.447476624,-1.4708,-7.0988,740.16560,-1.965,-8.364,4.49907,NaN,NaN,260.0,NaN,247.0,NaN,NaN
QJXADNRVEHIPIO-UHFFFAOYSA-N,CCOc1ccc(cc1)C1CC(=NN1c1ccc(c(c1)C)C)c1ccc(cc1)F,CCOc1ccc(cc1)C1CC(=NN1c1ccc(c(c1)C)C)c1ccc(cc1)F,317.2,0.946382601,0.6914,-6.9603,3.09987,338.1079858344796,0.499602143,-0.5755,-7.6047,194.38763,-0.614,-8.056,2.51751,334.77573379030497,0.6502098844,349,NaN,349,NaN,NaN
CFIIBCWKLRBFLS-UHFFFAOYSA-N,c1ccc(cc1)C#Cc1ccc2c(c1)sc1c2sc2c1ccc(c2)C#Cc1ccccc1,c1ccc(cc1)C#Cc1ccc2c(c1)sc1c2sc2c1ccc(c2)C#Cc1ccccc1,338.9,2.453402207,-0.4352,-7.4914,0.00350,401.2433605356106,1.318940712,-0.7557,-7.1796,0.30876,-1.425,-8.209,0.00831,329.12371057110096,1.729015347,349.0,NaN,344.0,NaN,NaN
NHQDETIJWKXCTC-UHFFFAOYSA-N,OOC(=O)c1cccc(c1)Cl,OOC(=O)c1cccc(c1)Cl,252.8,0.032651597,-0.0989,-9.6167,2.53061,297.82416143527183,0.002907917,-1.2595,-10.0056,73.04696,-1.226,-10.232,2.36999,NaN,NaN,254,NaN,254,NaN,NaN
WLAOCGCRKUNUAS-UHFFFAOYSA-N,c1ccc(cc1)CCNc1nnc(s1)c1cnccn1,c1ccc(cc1)CCNc1nnc(s1)c1cnccn1,301.6,0.009531522,-0.0474,-8.3117,3.77148,372.10143579082734,0.624780151,-1.0482,-8.0542,146.59131,-1.413,-8.942,4.94386,NaN,NaN,257.0,NaN,257.0,NaN,NaN
LDSQYGJMMNDTIH-UHFFFAOYSA-N,Oc1ccc(cc1C=Nc1ccccc1O)N=Nc1ccc(cc1)OC(F)(F)F,Oc1ccc(cc1C=Nc1ccccc1O)N=Nc1ccc(cc1)OC(F)(F)F,427.8,0.000243685,-0.7626,-8.2249,1.60471,521.1609853110705,0.008896621,-1.4886,-8.1399,404.72014,-1.521,-8.983,2.25602,NaN,NaN,485.0,NaN,350.0,NaN,NaN
DQHMFEOWZRDDKR-UHFFFAOYSA-N,OC(=O)c1c(Cl)[nH]c2c1CCCc1c2cccc1,OC(=O)c1c(Cl)[nH]c2c1CCCc1c2cccc1,258.1,0.31882554,1.0501,-7.889,3.43712,356.27643219972316,0.005770814,-0.6528,-7.9641,238.21756,-0.466,-8.781,3.50504,NaN,NaN,NaN,NaN,NaN,NaN,NaN