inchikey,smi_pre,smi_post,lambda_sTDA (nm),f1_sTDA,lumo_dft,homo_dft,dmom_dft (D),lambda_z (nm),f1_z,lumo_z,homo_z,dmom_z (D),lumo_mopac,homo_mopac,dmom_mopac (D),lambda_tddft (nm),f1_tddft,lambda_exp_max (nm),epsilon_exp_max ,lambda_exp_min (nm),epsilon_exp_min ,solvent
WTDRYGHTAWVCQH-UHFFFAOYSA-N,COc1ccc2c(c1c1c(OC)ccc3c1ccc(c3)C(C)(C)C)ccc(c2)C(C)(C)C,COc1ccc2c(c1c1c(OC)ccc3c1ccc(c3)C(C)(C)C)ccc(c2)C(C)(C)C,301.9,0.233030558,0.7249,-7.4849,2.19398,335.6367038589704,0.134606617,-0.029,-7.4307,124.21315,-0.355,-8.228,2.49384,NaN,NaN,342,NaN,342,NaN,CH 2 Cl 2 + 0.2 mmol l  1 Bu 4 NBF
CSHWQDPOILHKBI-UHFFFAOYSA-N,c1cc2cccc3c2c(c1)c1cccc2c1c3ccc2,c1cc2cccc3c2c(c1)c1cccc2c1c3ccc2,387.6,0.512903787,-0.4546,-7.0765,0.00035,408.24563189168146,0.623108062,-0.9259,-6.9909,0.00326,-1.343,-8.098,0.00027,NaN,NaN,450,NaN,450,NaN,CH 2 Cl 2 + 0.2 mmol l  1 Bu 4 NBF
BPRGBMCFKTVXLN-UHFFFAOYSA-N,COc1ccc(s1)C#Cc1sc(c(c1[N+](=O)[O-])[N+](=O)[O-])C#Cc1ccc(s1)OC,COc1ccc(s1)C#Cc1sc(c(c1[N+](=O)[O-])[N+](=O)[O-])C#Cc1ccc(s1)OC,374.2,1.606609374,-0.9838,-7.6076,6.37718,618.6836247779623,0.336561235,-2.4594,-7.6201,17.26977,-2.062,-8.759,7.74458,417.44114006006345,1.2911910016,460,9700,460,9700,CH2Cl2 ( c 2  105 mol / l )
OLRFGYCLUFURQH-UHFFFAOYSA-N,COc1ccc(s1)C=Cc1sc(c(c1[N+](=O)[O-])[N+](=O)[O-])C=Cc1ccc(s1)OC,COc1ccc(s1)C=Cc1sc(c(c1[N+](=O)[O-])[N+](=O)[O-])C=Cc1ccc(s1)OC,397.4,1.510865496,-1.0473,-7.4753,8.26298,587.0463939654529,0.128613559,-2.5705,-7.7374,96.48872,-1.952,-8.814,8.78255,439.19303226793994,1.2808672565,488,25000,488,25000,CH2Cl2 ( c 2  105 mol / l )