inchikey,smi_pre,smi_post,lambda_sTDA (nm),f1_sTDA,lumo_dft,homo_dft,dmom_dft (D),lambda_z (nm),f1_z,lumo_z,homo_z,dmom_z (D),lumo_mopac,homo_mopac,dmom_mopac (D),lambda_tddft (nm),f1_tddft,lambda_exp_max (nm),epsilon_exp_max ,lambda_exp_min (nm),epsilon_exp_min ,solvent
VGEVPFXJHNVBCP-UHFFFAOYSA-N,OCCCC1=C(I)c2ccccc2S(=O)(=O)N1CC,OC1=C(I)c2ccccc2S(=O)(=O)N1CC,307.7,0.027654454,0.4108,-8.2769,4.63138,NaN,NaN,NaN,Nan,NaN,-0.686,-8.395,3.22345,NaN,NaN,NaN,NaN,NaN,NaN,NaN
DCMBKEMPUHATNN-UHFFFAOYSA-N,c1ccc2c(c1)[nH]c(n2)N=Nc1nc2c([nH]1)cccc2,c1ccc2c(c1)[nH]c(n2)N=Nc1nc2c([nH]1)cccc2,452.4,2.952e-06,-1.1863,-8.1145,0.00054,560.0008961404862,0.039363,-2.1111,-7.8578,2.34260,-1.859,-9.083,0.00193,NaN,NaN,457,14500,457,14500,NaN
BXZQXFBFFBXOSP-UHFFFAOYSA-N,O=C(C(F)(F)F)C(=CC=C(c1ccccc1)c1ccccc1)c1ccccc1,O=C(C(F)(F)F)C(=CC=C(c1ccccc1)c1ccccc1)c1ccccc1,321.0,1.146989675,-0.8624,-8.259,5.19989,367.1430216331172,0.628198159,-1.3871,-8.2383,335.83199,-1.408,-9.391,5.46019,NaN,NaN,371,NaN,371,NaN,NaN
KUHLYCGEVTUZOC-UHFFFAOYSA-N,[O-][n+]1cccc2c1c1[n+]([O-])cccc1C2(F)F,[O-][n+]1cccc2c1c1[n+]([O-])cccc1C2(F)F,353.8,0.179009817,-0.4916,-8.1964,3.91217,466.6322860575975,7.37e-07,-1.8261,-8.5983,11.92208,-1.627,-8.751,2.7515,NaN,NaN,340,NaN,340,NaN,NaN
SIGLNNLOFZKOCC-UHFFFAOYSA-N,CC(=NNC(=S)N)c1ccc(cc1)Cl,CC(=NNC(=S)N)c1ccc(cc1)Cl,272.5,0.000169564,0.4631,-8.0528,5.72715,382.90363930050546,3.1396e-05,-0.4525,-8.5491,120.95663,-0.889,-8.464,6.47581,NaN,NaN,601,NaN,601,NaN,NaN
QFOHBWFCKVYLES-UHFFFAOYSA-N,CCCCOC(=O)c1ccc(cc1)O,COC(=O)c1ccc(cc1)O,244.0,0.008396934,0.9082,-8.7731,1.36742,279.1808115413278,0.012145559,-0.6986,-9.1965,7.72688,-0.555,-9.653,1.5011,NaN,NaN,300,NaN,300,NaN,NaN
UNWPOCDSTMHOAP-UHFFFAOYSA-N,CC(=CC(=O)C)Nc1ccc2c(c1)ccc(=O)o2,CC(=CC(=O)C)Nc1ccc2c(c1)ccc(=O)o2,313.8,0.093335295,-0.1876,-8.1262,7.20361,345.45611146699264,0.093756114,-0.9957,-8.2255,115.68191,-1.434,-8.816,3.58779,NaN,NaN,308,NaN,308,NaN,NaN
GKMUAPGIWHSRRO-UHFFFAOYSA-N,Brc1ccc(cc1)c1nc2CCc3c(c2c2c1c1ccccc1CC2)cccc3,Brc1ccc(cc1)c1nc2CCc3c(c2c2c1c1ccccc1CC2)cccc3,292.4,0.429580591,0.2279,-7.9323,3.91013,334.6402116207926,0.355557856,-0.284,-7.6371,562.58297,-0.801,-8.79,4.15171,NaN,NaN,325.0,37800.0,270.0,18400.0,chloroform
BZKLSOZQIAKNRJ-UHFFFAOYSA-N,CCCOc1ccc(cc1)C1CC(=NN1c1ccc(c(c1)C)C)c1ccc(cc1)F,CCCOc1ccc(cc1)C1CC(=NN1c1ccc(c(c1)C)C)c1ccc(cc1)F,319.6,0.971534807,0.6809,-6.9243,3.09830,338.3848209757196,0.505606354,-0.5793,-7.6051,214.33724,-0.61,-8.052,2.55338,332.49535522336197,0.6425944749,358,NaN,358,NaN,NaN
KGIXGIKWYBWJME-UHFFFAOYSA-N,OCC(=O)CCc1cccc(c1)Br,OCC(=O)CCc1cccc(c1)Br,279.4,9.785e-06,0.9323,-9.2529,3.09364,332.21918115086726,1.3117e-05,-0.0851,-9.302,215.19467,-0.516,-9.78,1.27368,NaN,NaN,NaN,NaN,NaN,NaN,NaN
CMTPNWADPOIQKE-UHFFFAOYSA-N,CC(=O)NC1=CC(=O)C(=O)c2c1cccc2,CC(=O)NC1=CC(=O)C(=O)c2c1cccc2,491.0,6.6165e-05,-1.2981,-9.0429,9.52609,504.2057682208364,0.000692269,-1.8801,-9.0264,92.07504,-1.529,-9.499,9.10393,NaN,NaN,265,NaN,265,NaN,ethanol
VTUAPCKYDWXZMD-UHFFFAOYSA-N,c1ccc(cc1)N1N=C(CC1c1ccccc1)c1ccc2c(c1)C1(c3c2cccc3)c2ccccc2c2c1cccc2,c1ccc(cc1)N1N=C(CC1c1ccccc1)c1ccc2c(c1)C1(c3c2cccc3)c2ccccc2c2c1cccc2,337.8,1.430309894,0.2205,-6.9852,2.68555,353.93719213675035,0.743656791,-0.5963,-7.4926,33.84912,-0.816,-8.085,2.89285,NaN,NaN,386,NaN,386,NaN,NaN
DFPAKSUCGFBDDF-UHFFFAOYSA-N,NC(=O)c1cccnc1,NC(=O)c1cccnc1,258.5,0.004766802,0.5023,-9.6963,1.94842,296.89702683310264,0.00451867,-0.4337,-9.5392,28.78591,-0.866,-10.51,2.59332,NaN,NaN,260,NaN,260,NaN,NaN
OTDJRONBABDJMJ-UHFFFAOYSA-N,CCCCCCCCC1(CCCCCCCC)c2cc3nc([nH]c3cc2c2c1cc1nc([nH]c1c2)c1cccc(c1)F)c1cccc(c1)F,C1(C)c2cc3nc([nH]c3cc2c2c1cc1nc([nH]c1c2)c1cccc(c1)F)c1cccc(c1)F,328.9,1.996787598,-0.1122,-7.3385,2.58542,394.3517760989302,1.362020794,-0.7758,-7.0773,137.03011,-1.278,-8.518,2.98242,336.34689655808,1.8585319314,380.0,NaN,370.0,NaN,NaN
KMWCGONJLOMMSR-SECBINFHSA-N,[O-][N+](=O)C[C@H](c1ccccc1C)O,[O-][N+](=O)C[C@H](c1ccccc1C)O,297.1,9.7712e-05,0.4145,-9.2526,3.33015,412.04452776837377,1.1433e-05,-2.552,-8.9883,92.07183,-0.368,-9.934,5.1485,NaN,NaN,NaN,NaN,NaN,NaN,NaN
IQTKTHUCAIXPNT-UHFFFAOYSA-N,N#CC(=Cc1sc(c2c1OCCO2)c1ccc(cc1)OC)C#N,N#CC(=Cc1sc(c2c1OCCO2)c1ccc(cc1)OC)C#N,345.6,1.327911707,-0.9832,-7.9313,9.35133,420.00067210536474,0.703275748,-1.4914,-7.8922,119.96440,-1.716,-8.807,7.7321,382.33684781435625,1.0456007534,379,NaN,379,NaN,DCM
CFPIZMWTMRWZRO-UHFFFAOYSA-N,CCN(c1ccc(cc1)[N+](=O)[O-])CC,CCN(c1ccc(cc1)[N+](=O)[O-])CC,312.0,0.00013048,0.0714,-8.0677,7.88699,419.71631146074355,0.001445846,-2.2112,-8.6776,169.02743,-0.728,-8.771,9.00594,NaN,NaN,408.1,NaN,399.9,NaN,NaN
UNIYAMADOUKUKX-UHFFFAOYSA-N,CCCCCCCCC1(CCCCCCCC)c2cc(C#Cc3ccccc3)ccc2c2c1cc1nc3c(nc1c2)c1cccc2c1c1c3cccc1cc2,C1(C)c2cc(C#Cc3ccccc3)ccc2c2c1cc1nc3c(nc1c2)c1cccc2c1c1c3cccc1cc2,360.9,1.582066516,-0.7996,-7.5557,0.76377,425.76991210681206,1.156022346,-1.1778,-7.2412,73.93877,-1.46,-8.505,0.57228,377.0006172932753,1.2481218683,430,NaN,430,NaN,DMSO
DJJCXFVJDGTHFX-XVFCMESISA-N,O[C@@H]1[C@H](O)[C@H](O[C@H]1n1ccc(=O)[nH]c1=O)COP(=O)(O)O,O[C@@H]1[C@H](O)[C@H](O[C@H]1n1ccc(=O)[nH]c1=O)COP(=O)(O)O,232.1,0.032088916,0.857,-9.1621,2.67824,300.56775371031193,0.019310749,-0.9652,-9.2088,79.47125,-0.363,-9.598,4.69156,NaN,NaN,262,NaN,262,NaN,NaN
LWMPJOQWSIAGBF-UHFFFAOYSA-N,COc1ccc2c(c1)oc(=O)cc2COc1c(C)cc(cc1C)C,COc1ccc2c(c1)oc(=O)cc2COc1c(C)cc(cc1C)C,280.5,0.350668482,0.1271,-8.3461,3.30021,333.11176358276106,0.347849134,-0.9801,-8.4536,163.11129,-0.898,-9.137,5.33831,NaN,NaN,324,NaN,324,NaN,NaN
OHSDYNHTAKZNGH-UHFFFAOYSA-N,Clc1ccc2c(c1)nc1n2c(cc2c1c(C)nn2c1ccccc1)c1ccccc1,Clc1ccc2c(c1)nc1n2c(cc2c1c(C)nn2c1ccccc1)c1ccccc1,294.7,0.079975729,0.3415,-7.8906,6.38028,358.4394287525402,0.090480151,-0.696,-7.7818,254.24802,-1.027,-8.696,7.00093,NaN,NaN,286.0,NaN,208.0,NaN,NaN
YOQSSMKCLYWCNB-UHFFFAOYSA-N,C#Cc1ccc(cc1)N(c1ccc(cc1)C#C)c1ccc(cc1)C=C1CCc2c(C1=O)cccc2,C#Cc1ccc(cc1)N(c1ccc(cc1)C#C)c1ccc(cc1)C=C1CCc2c(C1=O)cccc2,336.1,0.106594278,-0.3182,-7.3941,2.95593,375.70969213788993,0.009003326,-0.7719,-7.3036,44.35289,-0.733,-8.141,3.06393,NaN,NaN,415.0,NaN,367.0,NaN,NaN
ZJIITHNXZLJNFM-UHFFFAOYSA-N,CCCCCCCCc1ccc(s1)c1ccc(s1)c1sc(c(c1C#N)C#N)c1ccc(s1)c1ccc(s1)CCCCCCCC,Cc1ccc(s1)c1ccc(s1)c1sc(c(c1C#N)C#N)c1ccc(s1)c1ccc(s1)C,399.1,1.804560424,-0.9953,-7.509,7.01872,456.83197643884915,0.873741773,-1.3585,-7.3859,18.56738,-1.867,-8.881,7.87752,437.4574589275261,1.5113747702,459,NaN,459,NaN,NaN
UKTZZIMJNPQAKZ-UHFFFAOYSA-N,Cc1c(O)cc(c(c1O)[N+](=O)[O-])C,Cc1c(O)cc(c(c1O)[N+](=O)[O-])C,303.7,0.001807905,-0.3738,-8.8713,3.93194,458.18255138767057,0.000380573,-2.6172,-9.2636,64.60658,-1.139,-9.723,4.10037,NaN,NaN,344,NaN,344,NaN,NaN
KEMPELFNZWMQEE-UHFFFAOYSA-N,CCOC(=O)c1ccc(cc1)C#Cc1ccc(s1)c1ccc(cc1)OC,CCOC(=O)c1ccc(cc1)C#Cc1ccc(s1)c1ccc(cc1)OC,322.9,1.741821632,-0.2344,-7.554,3.75248,401.89367392383684,0.83672723,-1.0244,-7.467,10.04133,-1.248,-8.704,3.96952,347.158517694012,1.5160016241,875.0,NaN,358.0,NaN,NaN
IZHWBPIMZQNSMU-UHFFFAOYSA-N,O=C1c2ccccc2c2c(C1=O)n1ccccc1n2,O=C1c2ccccc2c2c(C1=O)n1ccccc1n2,438.1,6.2531e-05,-1.1519,-8.6136,4.83860,510.8537223135709,5.72e-05,-1.893,-8.2703,66.97022,-1.695,-9.396,3.47528,NaN,NaN,399,2300,399,2300,NaN
HOIVOVFBXZIWLV-AKAIJSEGSA-N,OC[C@H]1O[C@H]([C@@H]([C@@H]1O)O)n1c(nc2c1ncnc2N)c1ccco1,OC[C@H]1O[C@H]([C@@H]([C@@H]1O)O)n1c(nc2c1ncnc2N)c1ccco1,267.1,0.854769514,0.4589,-8.1996,4.79356,376.73715711183127,0.608851382,-0.9405,-7.7535,38.54630,-0.859,-8.933,2.25111,279.74141605387837,0.6427624513,304.0,NaN,302.0,NaN,EtOAc
RMGIBADSHNECJX-UHFFFAOYSA-N,CCCn1c(nc(c1c1ccccc1)c1ccccc1)c1cccc(c1)[N+](=O)[O-],CCCn1c(nc(c1c1ccccc1)c1ccccc1)c1cccc(c1)[N+](=O)[O-],316.0,0.000563081,-0.5315,-7.7915,4.55062,479.0734096039554,0.009021761,-2.5835,-7.4491,217.49110,-1.346,-8.703,5.92978,NaN,NaN,360,NaN,360,NaN,NaN
IQRXAJQIFYMJTE-UHFFFAOYSA-N,COC(=O)CN1C(=NC(=Cc2ccc(cc2)N(C)C)C1=O)C,COC(=O)CN1C(=NC(=Cc2ccc(cc2)N(C)C)C1=O)C,330.8,1.271208939,-0.0066,-7.1205,5.80678,368.78107794617387,0.774944563,-0.9453,-7.6401,190.45754,-0.915,-8.055,5.3216,358.11846280939153,1.0571373813,436,37120,436,37120,methanol
BYEMOPAVGULHAT-UHFFFAOYSA-N,CCC(c1ccccc1C)O,CCC(c1ccccc1C)O,235.3,0.000850193,1.6185,-8.9218,1.01071,275.0925192045788,0.007738553,0.6526,-8.6854,32.45019,0.136,-9.488,1.93052,NaN,NaN,NaN,NaN,NaN,NaN,NaN
FUIFVPMNUDTSIX-UHFFFAOYSA-N,COc1ccc(cc1)c1nc2c(nc1c1ccc(cc1)OC)ccc1c2C(=O)c2ccccc2C1=O,COc1ccc(cc1)c1nc2c(nc1c1ccc(cc1)OC)ccc1c2C(=O)c2ccccc2C1=O,401.6,0.014561208,-1.2372,-7.8779,4.16024,406.77230447999887,0.098840223,-1.7798,-7.9345,60.01206,-1.748,-8.837,4.26842,NaN,NaN,274,134896.28825916533,274,134896.28825916533,Hexane
BAPIDOBJNVWVQD-UHFFFAOYSA-N,c1ccc(cc1)CCCOc1cc(nc(c1)c1ccccn1)c1ccccn1,c1ccc(cc1)CCCOc1cc(nc(c1)c1ccccn1)c1ccccn1,263.4,0.054270969,0.3379,-8.4211,1.56695,317.82670701231393,0.496928357,-0.3877,-8.1271,70.76475,-0.89,-9.282,1.60365,NaN,NaN,277.0,23700.0,240.0,21100.0,MeCN
ZLHHJVUGUZFYFS-UHFFFAOYSA-N,COc1ccc(cc1)C#Cc1cc2c(C)cc(c3c2c2c1cc(cc2cc3)C(C)(C)C)C,COc1ccc(cc1)C#Cc1cc2c(C)cc(c3c2c2c1cc(cc2cc3)C(C)(C)C)C,349.1,0.510249457,-0.0467,-7.1307,1.62285,377.5401900289393,0.457149461,-0.6317,-6.9722,112.84899,-0.955,-7.935,1.58023,NaN,NaN,380,36307.8054770101,380,36307.8054770101,NaN
SLEHYHOAAYUHPU-UHFFFAOYSA-N,Oc1cccc2c1nc(cc2)c1ccc(cn1)c1ccccc1,Oc1cccc2c1nc(cc2)c1ccc(cn1)c1ccccc1,320.0,0.207901987,-0.2451,-7.9656,2.25763,334.6402116207926,0.453179297,-0.76,-7.97,75.99194,-1.217,-8.811,2.0559,NaN,NaN,358.0,NaN,295.0,NaN,NaN
HANYQKYPMPCCJE-UHFFFAOYSA-N,COC(=C1C(=O)c2c(C1=O)cccc2)C=Cc1cc2CCCN3c2c(c1)CCC3,COC(=C1C(=O)c2c(C1=O)cccc2)C=Cc1cc2CCCN3c2c(c1)CCC3,364.9,1.692130428,-0.5725,-7.1105,5.45029,396.49567766390686,0.121797665,-1.102,-7.5386,179.02199,-0.766,-7.891,4.49413,403.9362514147372,1.3463858181,562.0,54367,500.0,54367,Cyclohexane
SPAPPSAYTZPMBS-UHFFFAOYSA-N,COc1ccc(cc1)N(c1ccccc1)c1ccc(cc1)C=CC(=O)c1cc(sc1C)C,COc1ccc(cc1)N(c1ccccc1)c1ccc(cc1)C=CC(=O)c1cc(sc1C)C,336.0,1.268805892,-0.1563,-7.1435,5.53383,376.85166688602936,0.007626959,-0.7188,-7.3246,228.51924,-0.689,-7.9,2.69329,353.473010061693,0.0006646723,417,NaN,417,NaN,NaN
WPUQBSMBOBDMBG-UHFFFAOYSA-N,Clc1cc2c(c(c1O)Cl)[nH]c1c2cccc1,Clc1cc2c(c(c1O)Cl)[nH]c1c2cccc1,282.5,0.046070243,0.665,-7.9942,3.29657,325.759848674471,0.025731084,-0.5536,-8.2623,222.03243,-0.856,-8.777,3.38885,NaN,NaN,355.0,NaN,302.0,NaN,NaN
CJIBMHFILHFQIB-UHFFFAOYSA-N,CCCCCCCOc1c(ccc2c1ccc(c2OCCCCCCC)C(=Cc1ccc(cc1)c1nnc(o1)CCCCCCCCC)C#N)C(=Cc1ccc(cc1)c1nnc(o1)CCCCCCCCC)C#N,COc1c(ccc2c1ccc(c2OC)C(=Cc1ccc(cc1)c1nnc(o1)C)C#N)C(=Cc1ccc(cc1)c1nnc(o1)C)C#N,342.2,2.213295439,-1.0377,-8.1355,1.70677,349.54665465323836,1.027936393,-1.0399,-7.9687,25.05578,-1.562,-9.134,8.26765,367.94929074441905,2.0361729084,416.0,NaN,370.0,NaN,dichloromethane
CHLKQZKJHXPVBM-UHFFFAOYSA-N,OC(=O)CN1C(=S)SC(=Cc2ccc(s2)c2ccc3c(c2)c2ccccc2n3c2ccc3c(c2)C(C)(C)c2c3cccc2)C1=O,OC(=O)CN1C(=S)SC(=Cc2ccc(s2)c2ccc3c(c2)c2ccccc2n3c2ccc3c(c2)C(C)(C)c2c3cccc2)C1=O,368.2,2.071144886,-1.0226,-7.5523,9.30523,464.5342765286761,0.000111477,-1.6039,-7.6086,1087.54262,-1.721,-8.317,7.8206,403.476172375409,1.6232817755,486.0,NaN,469.0,NaN,NaN
VABCXTXMSJDYSF-UHFFFAOYSA-N,CCCCCCn1c2cc(ccc2n(c1=S)CCCCCC)N(c1ccc2c(c1)n(CCCCCC)c(=S)n2CCCCCC)c1ccc(cc1)c1ccc(o1)c1ccc(s1)C=C(C(=O)O)C#N,Cn1c2cc(ccc2n(c1=S)C)N(c1ccc2c(c1)n(C)c(=S)n2C)c1ccc(cc1)c1ccc(o1)c1ccc(s1)C=C(C(=O)O)C#N,402.0,1.994752711,-1.2341,-7.1201,8.41377,508.96633171389027,1.013383155,-1.961,-7.4154,279.75778,-2.169,-7.981,6.78943,436.4103942599065,1.6501590805,950,NaN,950,NaN,NaN
GWPVANSVFNTBCE-UHFFFAOYSA-N,CCN(c1ccc(cc1)c1nc2CCc3c(c2c2c1c1ccccc1CC2)cccc3)CC,CCN(c1ccc(cc1)c1nc2CCc3c(c2c2c1c1ccccc1CC2)cccc3)CC,307.1,0.621637835,0.6146,-6.9625,1.71004,345.0715235332693,0.391951548,-0.0382,-7.1458,50.52839,-0.446,-7.839,1.93171,NaN,NaN,361.0,NaN,255.0,NaN,acetonitrile
VIPVTSDHPLPXQH-UHFFFAOYSA-N,CO[Si](CCCSC(=O)c1ccco1)(OC)OC,CO[Si](CCCSC(=O)c1ccco1)(OC)OC,273.8,0.002032409,0.4163,-8.9538,2.62464,341.46019940926374,0.001632156,-0.7954,-8.8156,46.39304,-0.745,-9.02,2.30641,NaN,NaN,283,92700.0,283,92700.0,chloroform
XOFDRZHSUPZCCD-UHFFFAOYSA-N,COC(=O)C1=c2cccnn2C(C1)C(=O)OC,COC(=O)C1=c2cccnn2C(C1)C(=O)OC,420.1,0.056017399,0.0464,-7.4386,2.12040,418.72407431781045,0.1746351,-1.2354,-7.8849,21.31908,-1.026,-8.558,1.89955,NaN,NaN,496.0,NaN,415.0,NaN,Cyclohexane
QCMOUGGXYBDRMJ-UHFFFAOYSA-N,OCc1cc(Nc2cccc(c2)Cl)c2c(c1N)C(=O)c1c(C2=O)cccc1,OCc1cc(Nc2cccc(c2)Cl)c2c(c1N)C(=O)c1c(C2=O)cccc1,439.8,0.461661167,-1.0395,-7.3331,2.07883,457.1688731766359,0.286585969,-1.8172,-7.883,132.29336,-1.71,-8.206,1.58669,NaN,NaN,606.0,NaN,570.0,NaN,NaN
KWVCXTBJUBPCRU-UHFFFAOYSA-N,CCOC(=O)c1c2cc(ccn2c(c1C(=O)OCC)C(=O)c1ccc(cc1)Br)c1ccncc1,CCOC(=O)c1c2cc(ccn2c(c1C(=O)OCC)C(=O)c1ccc(cc1)Br)c1ccncc1,318.1,0.442552569,-0.4103,-8.195,2.87643,398.1509261576868,0.311882509,-1.2795,-8.173,471.66254,-1.322,-9.254,2.84213,NaN,NaN,254.4,NaN,254.4,NaN,MeOH
JRIPHZPMQBHAAE-UHFFFAOYSA-N,COC(=O)c1c[nH]c2c1CCc1c2cccc1Cl,COC(=O)c1c[nH]c2c1CCc1c2cccc1Cl,274.6,0.403887693,0.8385,-7.8269,1.82551,346.8089465888214,0.360140324,-0.5375,-7.7668,70.84628,-0.625,-8.746,4.81916,NaN,NaN,NaN,NaN,NaN,NaN,NaN
VRVIQZZQZPBDCK-UHFFFAOYSA-N,N#CC(=Cc1ccc2c3c1ccc1c3c(cc2)ccc1)c1ccc(s1)C=C1SC(=S)N(C1=O)CC(=O)O,N#CC(=Cc1ccc2c3c1ccc1c3c(cc2)ccc1)c1ccc(s1)C=C1SC(=S)N(C1=O)CC(=O)O,391.9,0.313158675,-1.3942,-7.805,1.34723,465.58091778258984,0.001631846,-1.9338,-7.5927,254.28370,-1.866,-8.693,6.7425,NaN,NaN,279,6250.0,279,6250.0,NaN
CFMUSEQMSOKKAP-UHFFFAOYSA-N,c1ccc2c(c1)n(c1cc(cc(c1)n1c3ccccc3c3c1cccc3)c1cc(cc(c1)n1cncn1)n1cncn1)c1c2cccc1,c1ccc2c(c1)n(c1cc(cc(c1)n1c3ccccc3c3c1cccc3)c1cc(cc(c1)n1cncn1)n1cncn1)c1c2cccc1,285.6,0.05014547,-0.0673,-7.9049,1.81086,322.53953799558707,0.142791762,-0.5052,-7.7854,249.29366,-1.406,-8.444,2.81522,NaN,NaN,240,NaN,240,NaN,NaN
SZOZGXRJYDKAAE-UHFFFAOYSA-N,Oc1ccc(c2c1nccc2)N=Nc1ccc(cc1)Oc1ccccc1,Oc1ccc(c2c1nccc2)N=Nc1ccc(cc1)Oc1ccccc1,435.0,0.000966148,-0.6199,-7.6931,1.44270,540.9432740205222,0.040838627,-1.2553,-7.843,121.50786,-1.43,-8.662,3.17844,NaN,NaN,407.0,NaN,391.0,NaN,DMSO
MZLWVEPSJWCBGX-UHFFFAOYSA-N,CCOC(C#Cc1ccc(cc1)c1nnc(o1)c1ccc(cc1)C(C)(C)C)OCC,CCOC(C#Cc1ccc(cc1)c1nnc(o1)c1ccc(cc1)C(C)(C)C)OCC,295.3,1.456726409,-0.132,-8.2203,3.52825,371.43258959108346,0.937881666,-0.8164,-7.7109,161.16143,-1.256,-9.049,4.83717,296.0604446469255,1.5184462935,305,NaN,305,NaN,NaN
KMMXXOIYKXEQPX-UHFFFAOYSA-N,c1ccc(cc1)c1nc(nc(n1)c1ccccc1)c1ccc(cc1)c1ccc2c(c1)ccn2c1ccc(cc1)n1c2ccccc2c2c1cccc2,c1ccc(cc1)c1nc(nc(n1)c1ccccc1)c1ccc(cc1)c1ccc2c(c1)ccn2c1ccc(cc1)n1c2ccccc2c2c1cccc2,287.9,1.639331118,-0.1491,-7.7182,1.55960,325.84546230092946,0.484339398,-0.5167,-7.5559,114.24515,-1.096,-8.252,1.48223,296.30808739631345,1.9115602255,341,NaN,341,NaN,NaN
LDSOLOGJBPSSGQ-UHFFFAOYSA-N,Clc1cccc(c1)Nc1nc2c(n1Cc1ccccn1)cc1c(c2)c(C)c(c(=O)o1)C(=O)N,Clc1cccc(c1)Nc1nc2c(n1Cc1ccccn1)cc1c(c2)c(C)c(c(=O)o1)C(=O)N,311.0,0.567660198,-0.1273,-7.7271,10.43748,371.9897941959306,0.382584616,-1.3341,-8.1821,158.12469,-1.459,-8.686,6.05806,NaN,NaN,360,NaN,360,NaN,ethanol
LBHZFROSLQFUOT-INIZCTEOSA-N,CCCCCCCC(=O)N[C@H](C(=O)OCC(F)(F)F)Cc1ccccc1,C(=O)N[C@H](C(=O)OCC(F)(F)F)Cc1ccccc1,232.4,0.002730798,1.2691,-9.4262,2.79410,291.31625565202927,0.001384127,-0.2495,-8.8903,154.56850,0.009,-9.741,2.48923,NaN,NaN,NaN,NaN,NaN,NaN,NaN
SFLKPKMXHDOPPH-UHFFFAOYSA-N,C[Si]1(C)C(=C(C(=C1c1ccc2c(c1)cccc2)c1ccccc1)c1ccccc1)c1ccc2c(c1)cccc2,C[Si]1(C)C(=C(C(=C1c1ccc2c(c1)cccc2)c1ccccc1)c1ccccc1)c1ccc2c(c1)cccc2,346.3,0.642967134,-0.1501,-7.4813,0.48415,326.18836728625007,0.401016414,-0.1518,-7.4891,17.72597,-0.552,-8.697,0.40055,NaN,NaN,377,15300,377,15300,NaN
JAOFNKSEUKZEIW-UHFFFAOYSA-N,OCCN(c1ccc(cc1)C=CC=CC=C(C(=O)NC(CO)CO)C#N)CCO,OCCN(c1ccc(cc1)C=CC=CC=C(C(=O)NC(CO)CO)C#N)CCO,367.1,1.336234826,-0.8494,-7.5048,0.47381,336.6391485351715,0.632588288,-1.2903,-8.0774,105.65989,-1.679,-8.903,3.97909,407.7622607683992,1.08415796,477,NaN,477,NaN,NaN
QSOZKIJDTMCWEO-UHFFFAOYSA-N,c1ccc2c(c1)oc(c2)C=Cc1cc(C=Cc2cc3c(o2)cccc3)cc(c1)C=Cc1cc2c(o1)cccc2,c1ccc2c(c1)oc(c2)C=Cc1cc(C=Cc2cc3c(o2)cccc3)cc(c1)C=Cc1cc2c(o1)cccc2,333.8,1.654775206,-0.3581,-7.6067,0.99253,366.3835650280841,1.195864594,-0.6242,-7.4042,23.30051,-1.015,-8.72,0.27654,341.8084884328273,1.4250192795,346,NaN,346,NaN,NaN
KPOZKOXWAMXWSJ-UHFFFAOYSA-N,Clc1ccc(cc1)C1C2=C(Oc3c1c1cc(OCCCNCCCNc4ccnc5c4ccc(c5)Cl)ccc1cc3)CC(CC2=O)(C)C,Clc1ccc(cc1)C1C2=C(Oc3c1c1cc(OCCCNCCCNc4ccnc5c4ccc(c5)Cl)ccc1cc3)CC(CC2=O)(C)C,293.9,0.13980981,0.2475,-7.8641,10.17148,353.93719213675035,0.00011356,-0.839,-8.1011,460.60337,-0.901,-8.437,12.44467,NaN,NaN,334,10000.0,334,10000.0,methanol
UKPIALJRUISJAX-UHFFFAOYSA-N,O=c1cc(C)c2c(o1)c1c3c(c2)C(C)(C)CCN3CCC1(C)C,O=c1cc(C)c2c(o1)c1c3c(c2)C(C)(C)CCN3CCC1(C)C,301.4,0.461039142,0.516,-7.3699,6.67099,359.27035179804017,0.375268227,-0.8082,-7.8226,126.28427,-0.456,-8.046,7.24946,NaN,NaN,382,NaN,382,NaN,dichloromethane
IVOMOUWHDPKRLL-KQYNXXCUSA-N,O[C@@H]1[C@@H]2OP(=O)(O)OC[C@H]2O[C@H]1n1cnc2c1ncnc2N,O[C@@H]1[C@@H]2OP(=O)(O)OC[C@H]2O[C@H]1n1cnc2c1ncnc2N,242.0,0.20232763,1.0528,-8.6373,4.25884,302.4004839158626,0.174611883,-0.2167,-8.2913,166.84462,-0.66,-9.161,2.16286,NaN,NaN,350.0,NaN,297.0,NaN,NaN
MLCPSWPIYHDOKG-UHFFFAOYSA-N,O=C1Nc2c(C1=C1C(=O)Nc3c1cccc3)cccc2,O=C1Nc2c(C1=C1C(=O)Nc3c1cccc3)cccc2,410.0,0.296008509,-1.165,-7.9781,0.43094,426.6489965777827,0.418594525,-1.7083,-8.0864,11.17755,-1.725,-8.881,0.5823,NaN,NaN,NaN,NaN,NaN,NaN,NaN
OFIYDHGGRMEXGK-UHFFFAOYSA-N,c1ccc(cc1)c1[nH]c2c(c1N=Nc1nc3c(s1)cccc3)cccc2,c1ccc(cc1)c1[nH]c2c(c1N=Nc1nc3c(s1)cccc3)cccc2,475.1,0.001770682,-0.7642,-7.6795,3.96925,540.2361586296456,0.015616895,-1.3734,-7.6462,84.30649,-1.336,-8.593,3.76572,NaN,NaN,533.0,NaN,464.0,NaN,Chloroform
IERHLVCPSMICTF-CCXZUQQUSA-N,O[C@H]1[C@H](O)[C@H](O[C@H]1n1ccc(nc1=O)N)COP(=O)(O)O,O[C@H]1[C@H](O)[C@H](O[C@H]1n1ccc(nc1=O)N)COP(=O)(O)O,246.8,0.147221401,1.0835,-8.7415,3.52730,297.46688676944257,0.151248276,-0.6104,-9.1321,121.29858,-0.619,-9.724,4.00764,NaN,NaN,NaN,NaN,NaN,NaN,NaN
ZNBHIZVPIRZVLA-UHFFFAOYSA-N,CC(c1ccc(cc1)c1nc2c(o1)cccc2)(C)C,CC(c1ccc(cc1)c1nc2c(o1)cccc2)(C)C,273.1,0.810196056,0.3408,-8.1864,1.78034,338.84722166029974,0.627376096,-0.6107,-7.8525,119.66375,-0.858,-8.987,2.3335,275.1413452781489,0.9599597126,302,30600,302,30600,heptane
CKBWTRSIUARPEC-UHFFFAOYSA-N,Oc1ccc(c(c1)O)C=NNC(=O)c1ccncc1,Oc1ccc(c(c1)O)C=NNC(=O)c1ccncc1,282.2,0.627208962,0.1269,-8.1708,3.70787,320.0418131272681,0.381229332,-0.9086,-8.5937,13.19582,-0.934,-8.943,3.22329,NaN,NaN,NaN,NaN,NaN,NaN,NaN
IVOMOUWHDPKRLL-UHFFFAOYSA-N,OC1C2OP(=O)(O)OCC2OC1n1cnc2c1ncnc2N,OC1C2OP(=O)(O)OCC2OC1n1cnc2c1ncnc2N,241.9,0.210922287,1.0337,-8.6412,3.95382,307.2718671759694,0.206783695,-0.1256,-8.0855,107.62586,-0.45,-8.929,1.96906,NaN,NaN,NaN,NaN,NaN,NaN,NaN
YMGQKKVYDASBSI-UHFFFAOYSA-N,CCOC(=O)c1cc2cc(cn2cc1c1cccs1)C(=O)C,CCOC(=O)c1cc2cc(cn2cc1c1cccs1)C(=O)C,338.2,0.108384327,0.0158,-7.932,3.34465,387.8141958257856,0.159480043,-0.9038,-7.7871,66.48089,-1.087,-8.853,3.62446,NaN,NaN,267,73200,267,73200,dichloromethane
DMXSJBAZGOCGFQ-UHFFFAOYSA-N,OCc1c(nc2n1cccc2)c1ccc(cc1)C,OCc1c(nc2n1cccc2)c1ccc(cc1)C,295.0,0.097126734,0.5846,-7.9187,2.88115,365.1964606936779,0.261664952,-0.3733,-7.4216,58.11057,-0.679,-8.806,1.71368,NaN,NaN,323,NaN,323,NaN,NaN
FZRPBZHUBOAPOO-UHFFFAOYSA-N,c1ccc(cc1)c1c2cc(ccc2c(c2c1cccc2)c1ccc2c(c1)cccc2)c1ccccc1,c1ccc(cc1)c1c2cc(ccc2c(c2c1cccc2)c1ccc2c(c1)cccc2)c1ccccc1,375.1,0.291644193,-0.1776,-7.2817,0.06613,392.4792605429049,0.302150031,-0.6531,-7.0513,10.11263,-1.115,-8.209,0.09695,NaN,NaN,396,10060,396,10060,NaN
ROBSYJFLTOLFFQ-UHFFFAOYSA-N,Clc1ccc(cc1)c1cn2c(n1)cc(cc2)C=Cc1ccccc1,Clc1ccc(cc1)c1cn2c(n1)cc(cc2)C=Cc1ccccc1,321.7,1.418800618,-0.1862,-7.5999,5.22186,370.6553016606985,0.566488022,-0.7045,-7.5182,346.56415,-1.103,-8.784,5.90465,329.4998219656624,1.3919165455,413.0,NaN,355.0,NaN,Toluene
VFLDPWHFBUODDF-UHFFFAOYSA-N,COc1cc(C=CC(=O)CC(=O)C=Cc2ccc(c(c2)OC)O)ccc1O,COc1cc(C=CC(=O)CC(=O)C=Cc2ccc(c(c2)OC)O)ccc1O,316.2,0.083645229,-0.2857,-7.9717,1.02374,361.4699661968037,0.005720682,-1.2109,-8.4241,22.41657,-0.92,-8.8,1.76741,NaN,NaN,427.0,NaN,404.0,NaN,Water