inchikey,smi_pre,smi_post,lambda_sTDA (nm),f1_sTDA,lumo_dft,homo_dft,dmom_dft (D),lambda_z (nm),f1_z,lumo_z,homo_z,dmom_z (D),lumo_mopac,homo_mopac,dmom_mopac (D),lambda_tddft (nm),f1_tddft,lambda_exp_max (nm),epsilon_exp_max ,lambda_exp_min (nm),epsilon_exp_min ,solvent
LHZBZSOJZUQHLV-UHFFFAOYSA-N,CCOC(=O)c1c(C)cn2c(c1c1ccccc1)nc1c2cccc1,CCOC(=O)c1c(C)cn2c(c1c1ccccc1)nc1c2cccc1,329.3,0.164349283,0.041,-7.7346,2.58666,373.6714840431093,0.197322567,-0.8135,-7.6275,28.33266,-1.127,-8.545,3.33766,NaN,NaN,253,48410,253,48410,dichloromethane
DNFVXUDMTZVWBL-UHFFFAOYSA-N,CCOC(=O)c1ccn2c(c1C)nc1c2cc(c(c1)C)C,CCOC(=O)c1ccn2c(c1C)nc1c2cc(c(c1)C)C,337.6,0.209489798,-0.0774,-7.6697,0.78351,380.66993676850984,0.264146385,-0.9126,-7.594,106.08554,-1.034,-8.482,4.5113,NaN,NaN,252,38855,252,38855,dichloromethane
DCRWMCXJSPHKME-UHFFFAOYSA-N,CCOC(=O)c1c(C)cn2c(c1C)nc1c2cc(c(c1)C)C,CCOC(=O)c1c(C)cn2c(c1C)nc1c2cc(c(c1)C)C,327.8,0.173007302,0.2487,-7.5419,4.07432,376.05155718988067,0.227743931,-0.7143,-7.5052,94.07794,-0.853,-8.369,3.64039,NaN,NaN,251,47854,251,47854,dichloromethane
VVMJTBOCHZMCHE-UHFFFAOYSA-N,CCOC(=O)c1ccn2c(c1c1ccccc1)nc1c2cc(c(c1)C)C,CCOC(=O)c1ccn2c(c1c1ccccc1)nc1c2cc(c(c1)C)C,339.1,0.185150525,-0.1113,-7.6877,1.51049,378.11588412779406,0.221106864,-0.8185,-7.5389,101.84177,-1.049,-8.516,3.42251,NaN,NaN,228,33071,228,33071,dichloromethane
KBBPPZOYGLEMGR-UHFFFAOYSA-N,CCOC(=O)c1c(C)cn2c(c1c1ccccc1)nc1c2cc(c(c1)C)C,CCOC(=O)c1c(C)cn2c(c1c1ccccc1)nc1c2cc(c(c1)C)C,331.5,0.166648946,0.1284,-7.5651,2.37940,379.2725555384021,0.204034656,-0.746,-7.4711,87.31421,-1.013,-8.378,3.61362,NaN,NaN,258,46168,258,46168,dichloromethane
YZCKVEUIGOORGS-UHFFFAOYSA-N,[H],[H],NaN,NaN,NaN,NaN,NaN,NaN,NaN,NaN,Nan,NaN,NaN,NaN,NaN,NaN,NaN,477,NaN,477,NaN,chloroform
KKAJSJJFBSOMGS-UHFFFAOYSA-N,Nc1ccc2c(c1)[n+](C)c1c(c2)ccc(c1)N.[Cl-],Nc1ccc2c(c1)[n+](C)c1c(c2)ccc(c1)N.[Cl-],NaN,NaN,NaN,NaN,NaN,NaN,NaN,NaN,Nan,NaN,NaN,NaN,NaN,NaN,NaN,365,NaN,365,NaN,NaN
GHASVSINZRGABV-UHFFFAOYSA-N,Fc1c[nH]c(=O)[nH]c1=O,Fc1c[nH]c(=O)[nH]c1=O,235.2,0.000932488,0.5013,-9.3829,4.07607,312.2241208902132,0.000593065,-1.3787,-10.1742,22.78103,-1.013,-10.142,3.94396,NaN,NaN,269,NaN,269,NaN,NaN
JYHCQVWYCGHXGP-WESIUVDSSA-N,CN([C@@H]1C(=O)C(=C(O)N)C(=O)[C@@]2([C@H]1C[C@H]1C(=C(O)c3c([C@@]1(C)O)cccc3O)C2=O)O)C,CN([C@@H]1C(=O)C(=C(O)N)C(=O)[C@@]2([C@H]1C[C@H]1C(=C(O)c3c([C@@]1(C)O)cccc3O)C2=O)O)C,NaN,NaN,NaN,NaN,NaN,NaN,NaN,NaN,Nan,NaN,NaN,NaN,NaN,NaN,NaN,369,NaN,369,NaN,NaN
RHMXXJGYXNZAPX-UHFFFAOYSA-N,Cc1cc(O)c2c(c1)C(=O)c1c(C2=O)c(O)cc(c1)O,Cc1cc(O)c2c(c1)C(=O)c1c(C2=O)c(O)cc(c1)O,363.6,0.306560918,-1.2456,-8.6616,0.55732,408.6493025890035,1.1265e-05,-2.0927,-8.9523,96.82117,-1.814,-9.499,0.51011,NaN,NaN,267,NaN,267,NaN,NaN
YGPLLMPPZRUGTJ-UHFFFAOYSA-N,c1ccc2c(c1)Cc1c2c2Cc3c(c2c2c1c1ccccc1C2)cccc3,c1ccc2c(c1)Cc1c2c2Cc3c(c2c2c1c1ccccc1C2)cccc3,278.7,1.2295e-05,0.7401,-7.8609,0.01144,330.18428337018287,7e-09,-0.0135,-7.6246,0.00741,-0.526,-8.637,0.00133,NaN,NaN,298,49500.0,298,49500.0,N
VBVAVBCYMYWNOU-UHFFFAOYSA-N,CCN(c1ccc2c(c1)oc(=O)c(c2)c1nc2c(s1)cccc2)CC,CCN(c1ccc2c(c1)oc(=O)c(c2)c1nc2c(s1)cccc2)CC,344.4,1.350206129,-0.3493,-7.4687,7.65239,425.3317269485546,0.808934978,-1.4314,-7.6257,225.73853,-1.166,-8.335,7.97379,366.31859897547554,1.1552434213,0,NaN,0,NaN,acetonitrile
SUSQOBVLVYHIEX-UHFFFAOYSA-N,N#CCc1ccccc1,N#CCc1ccccc1,230.4,0.002793536,1.2403,-9.5097,4.01817,269.3551996643573,0.002606533,0.3006,-9.0866,37.84168,-0.181,-10.021,3.81029,NaN,NaN,254,NaN,254,NaN,NaN
RGCKGOZRHPZPFP-UHFFFAOYSA-N,O=C1c2ccccc2C(=O)c2c1ccc(c2O)O,O=C1c2ccccc2C(=O)c2c1ccc(c2O)O,350.3,0.160242772,-1.2268,-8.5793,2.11255,406.9058037594475,1.065e-06,-2.0474,-9.0397,81.83521,-1.81,-9.321,2.15226,NaN,NaN,429,NaN,429,NaN,NaN
BBNQQADTFFCFGB-UHFFFAOYSA-N,Oc1c(O)cc(c2c1C(=O)c1ccccc1C2=O)O,Oc1c(O)cc(c2c1C(=O)c1ccccc1C2=O)O,385.3,0.270154612,-1.3432,-8.2865,2.97987,406.2391821936555,1.5966e-05,-2.1661,-8.849,93.11363,-1.923,-9.167,3.02941,NaN,NaN,482,NaN,482,NaN,NaN
MMHJCXUWEVLZQK-UHFFFAOYSA-N,CCOc1ccc2c(c1O)C(=O)c1c(C2=O)cccc1,CCOc1ccc2c(c1O)C(=O)c1c(C2=O)cccc1,351.2,0.156579048,-1.1963,-8.5717,1.80937,408.6493025890035,0.000200546,-2.0034,-8.9227,6.23249,-1.682,-8.965,1.69991,NaN,NaN,425,NaN,425,NaN,NaN
MXTXRPBIGIUXCR-UHFFFAOYSA-N,Oc1c(OCc2ccccc2)ccc2c1C(=O)c1ccccc1C2=O,Oc1c(OCc2ccccc2)ccc2c1C(=O)c1ccccc1C2=O,350.6,0.182993021,-1.2331,-8.6053,1.75740,408.24563189168146,0.000621908,-2.0213,-8.7341,65.74644,-1.724,-9.03,1.61708,NaN,NaN,423,NaN,423,NaN,NaN
OHVGJUARQUYMQX-UHFFFAOYSA-N,O=C1c2c(OCc3ccccc3)c(OCc3ccccc3)ccc2C(=O)c2c1cccc2,O=C1c2c(OCc3ccccc3)c(OCc3ccccc3)ccc2C(=O)c2c1cccc2,360.8,0.002296897,-1.0062,-8.8041,1.11818,399.3049868132163,0.00293817,-1.7203,-8.5477,121.43569,-1.484,-9.369,2.0929,NaN,NaN,375,NaN,375,NaN,NaN
YLHJTWSFMGSHLM-UHFFFAOYSA-N,COC(=O)CCCOc1ccc2c(c1O)C(=O)c1c(C2=O)cccc1,COC(=O)CCCOc1ccc2c(c1O)C(=O)c1c(C2=O)cccc1,348.6,0.132043125,-1.2077,-8.6192,1.10144,408.1112521576816,0.000266495,-1.9747,-8.9481,41.47947,-1.693,-9.0,0.07256,NaN,NaN,424,NaN,424,NaN,NaN
BCELHUUNFKZVHY-UHFFFAOYSA-N,Oc1c(OCc2ccccc2)cc(c2c1C(=O)c1ccccc1C2=O)O,Oc1c(OCc2ccccc2)cc(c2c1C(=O)c1ccccc1C2=O)O,391.7,0.373590927,-1.3292,-8.2175,2.27768,408.9188601764633,0.002674174,-2.1493,-8.7273,82.02141,-1.826,-8.96,2.49175,NaN,NaN,480,NaN,480,NaN,NaN
KGYPQCUMXQLLQV-UHFFFAOYSA-N,O=C1c2c(OCc3ccccc3)c(OCc3ccccc3)cc(c2C(=O)c2c1cccc2)O,O=C1c2c(OCc3ccccc3)c(OCc3ccccc3)cc(c2C(=O)c2c1cccc2)O,367.6,0.046775985,-1.1882,-8.5722,1.81068,405.3095730810842,0.003862272,-1.9132,-8.5041,168.25379,-1.635,-9.252,2.43568,NaN,NaN,429,NaN,429,NaN,NaN
ZBVGQTXZJBHDQL-UHFFFAOYSA-N,COC(=O)CCCOc1cc(O)c2c(c1O)C(=O)c1c(C2=O)cccc1,COC(=O)CCCOc1cc(O)c2c(c1O)C(=O)c1c(C2=O)cccc1,388.9,0.341932751,-1.318,-8.2262,1.46647,408.5146570197814,0.005098341,-2.0856,-8.7481,41.20596,-1.793,-8.928,0.86602,NaN,NaN,480,NaN,480,NaN,NaN
DBZQFUNLCALWDY-PNHWDRBUSA-N,OC[C@H]1O[C@H]([C@@H]([C@@H]1O)O)n1cnc2c1ccnc2N,OC[C@H]1O[C@H]([C@@H]([C@@H]1O)O)n1cnc2c1ccnc2N,254.9,0.193607457,1.6668,-7.6792,4.52520,311.9099330956067,0.066784962,0.2516,-7.6984,33.76876,-0.186,-8.439,3.91539,NaN,NaN,1162.7906976744187,NaN,1162.7906976744187,NaN,NaN
BFKFTIINKCGNDH-UHFFFAOYSA-N,O=C(Nc1cccc2c1cc1ccccc1c2)Nc1ccccc1,O=C(Nc1cccc2c1cc1ccccc1c2)Nc1ccccc1,363.9,0.156714603,-0.4713,-7.7639,4.41167,370.6553016606985,0.200141127,-0.9499,-7.5463,76.66586,-1.383,-8.514,3.91183,NaN,NaN,476,NaN,476,NaN,NaN
OMZACCARMQKRNV-UHFFFAOYSA-N,O=C(Nc1ccc2c(c1)cc1c(c2)cccc1)Nc1ccccc1,O=C(Nc1ccc2c(c1)cc1c(c2)cccc1)Nc1ccccc1,360.0,0.10127117,-0.3987,-7.6703,4.43377,370.98802634800614,0.150956823,-0.9333,-7.5294,90.98487,-1.355,-8.499,3.96961,NaN,NaN,449,NaN,449,NaN,NaN
HLJIIZLYKMQFSS-UHFFFAOYSA-N,OCCNc1cccc2c1cccc2,OCCNc1cccc2c1cccc2,297.0,0.108447525,0.6839,-7.849,2.14747,317.82670701231393,0.011273668,-0.0811,-7.756,39.80208,-0.423,-8.157,1.89382,NaN,NaN,0,NaN,0,NaN,NaN
PWZWNEJXDCVYIS-UHFFFAOYSA-N,c1ccc(cc1)c1[nH]c(nc1c1ccccc1)c1ccc(s1)c1nc(c([nH]1)c1ccccc1)c1ccccc1,c1ccc(cc1)c1[nH]c(nc1c1ccccc1)c1ccc(s1)c1nc(c([nH]1)c1ccccc1)c1ccccc1,348.7,1.576977087,0.0103,-7.1384,5.52258,490.2498948418492,0.856311502,-1.1548,-6.862,19.75355,-1.326,-8.342,6.80453,367.05605130333186,1.2646399703,385,NaN,385,NaN,MeCN
FPGSEKJSXICZRR-UHFFFAOYSA-N,Cn1c(nc(c1c1ccccc1)c1ccccc1)c1ccc(s1)c1nc(c(n1C)c1ccccc1)c1ccccc1,Cn1c(nc(c1c1ccccc1)c1ccccc1)c1ccc(s1)c1nc(c(n1C)c1ccccc1)c1ccccc1,325.2,1.644976751,0.3139,-7.1659,5.85167,431.09943812762054,0.747342491,-0.7587,-6.9725,30.73132,-0.982,-8.392,5.04385,NaN,NaN,365,NaN,365,NaN,MeCN
RNIPJYFZGXJSDD-UHFFFAOYSA-N,c1ccc(cc1)c1nc(c([nH]1)c1ccccc1)c1ccccc1,c1ccc(cc1)c1nc(c([nH]1)c1ccccc1)c1ccccc1,281.3,0.615784319,0.7121,-7.4827,3.26146,374.574617539286,0.521935561,-0.319,-7.0913,19.43781,-0.576,-8.459,3.66805,NaN,NaN,312,NaN,312,NaN,MeCN
UZVMFJQQFUEZRI-UHFFFAOYSA-N,CCN(S(=O)(=O)c1ccc(cc1[N+](=O)[O-])Cl)c1ccccc1,CCN(S(=O)(=O)c1ccc(cc1[N+](=O)[O-])Cl)c1ccccc1,312.1,0.011772271,-0.5605,-9.5086,5.57581,441.38198079566985,0.000607925,-2.8623,-9.3401,200.06154,-1.54,-9.738,5.14788,NaN,NaN,254,NaN,254,NaN,NaN
HYISVWRHTUCNCS-UHFFFAOYSA-N,OC(=O)c1ccc2c3c1ccc1c3c(cc2)ccc1,OC(=O)c1ccc2c3c1ccc1c3c(cc2)ccc1,338.1,0.359181002,-0.4814,-7.7449,2.52316,365.30406130083577,0.34211275,-1.1211,-7.636,114.73198,-1.555,-8.674,2.47043,NaN,NaN,323,NaN,323,NaN,Toluene
NGDMLQSGYUCLDC-UHFFFAOYSA-N,OCc1ccc2c3c1ccc1c3c(cc2)ccc1,OCc1ccc2c3c1ccc1c3c(cc2)ccc1,331.9,0.276261967,-0.0917,-7.5233,1.44858,359.89607664877695,0.009073033,-0.6786,-7.3138,43.19051,-1.186,-8.38,1.62277,NaN,NaN,316,NaN,316,NaN,Toluene
JUJWROOIHBZHMG-UHFFFAOYSA-N,c1cccnc1,c1cccnc1,NaN,NaN,NaN,NaN,NaN,NaN,NaN,NaN,Nan,NaN,NaN,NaN,NaN,NaN,NaN,296,NaN,296,NaN,Toluene
USOUWWPTYXEQDQ-UHFFFAOYSA-N,CCNN=C(C)C,CCNN=C(C)C,NaN,NaN,NaN,NaN,NaN,NaN,NaN,NaN,Nan,NaN,NaN,NaN,NaN,NaN,NaN,100,NaN,100,NaN,NaN
FLKPEMZONWLCSK-UHFFFAOYSA-N,CCOC(=O)c1ccccc1C(=O)OCC,CCOC(=O)c1ccccc1C(=O)OCC,246.8,0.034563724,0.4512,-9.581,0.77866,285.9414169868627,0.007058698,-0.7382,-9.6981,20.62335,-0.801,-10.349,3.59439,NaN,NaN,100,NaN,100,NaN,NaN
KQCMTOWTPBNWDB-UHFFFAOYSA-N,Clc1ccc(c(c1)Cl)N,Clc1ccc(c(c1)Cl)N,267.7,0.056605948,1.226,-8.106,3.02761,298.1105996766138,7.6525e-05,-0.1004,-8.762,73.14075,-0.465,-8.761,3.70406,NaN,NaN,100,NaN,100,NaN,NaN
QLYHPNUFNZJXOQ-UHFFFAOYSA-N,Nc1ccc(c(c1)Cl)Br,Nc1ccc(c(c1)Cl)Br,270.3,0.051286116,1.3223,-7.9474,4.64970,304.9291647946475,3.502e-06,-0.0136,-8.6396,175.59270,-0.362,-8.731,5.05009,NaN,NaN,100,NaN,100,NaN,NaN
PEEHTFAAVSWFBL-UHFFFAOYSA-N,O=C1C=CC(=O)N1,O=C1C=CC(=O)N1,NaN,NaN,NaN,NaN,NaN,NaN,NaN,NaN,Nan,NaN,NaN,NaN,NaN,NaN,NaN,100,NaN,100,NaN,NaN
KDUIUFJBNGTBMD-UHFFFAOYSA-N,C1=CC=CC=CC=C1,C1=CC=CC=CC=C1,NaN,NaN,NaN,NaN,NaN,NaN,NaN,NaN,Nan,NaN,NaN,NaN,NaN,NaN,NaN,100,NaN,100,NaN,NaN
CZBZUDVBLSSABA-UHFFFAOYSA-N,COc1ccc(cc1C(C)(C)C)O.COc1ccc(c(c1)C(C)(C)C)O,COc1ccc(cc1C(C)(C)C)O.COc1ccc(c(c1)C(C)(C)C)O,NaN,NaN,NaN,NaN,NaN,NaN,NaN,NaN,Nan,NaN,NaN,NaN,NaN,NaN,NaN,100,NaN,100,NaN,NaN
DKCPKDPYUFEZCP-UHFFFAOYSA-N,CC(c1cccc(c1O)C(C)(C)C)(C)C,CC(c1cccc(c1O)C(C)(C)C)(C)C,243.5,0.031383602,1.9836,-8.1544,1.89995,285.67787651037713,0.004030887,0.7459,-8.3621,3.88147,0.372,-8.733,1.68001,NaN,NaN,100,NaN,100,NaN,NaN
UGIFIIRRDSIAQG-UHFFFAOYSA-N,Cc1cccc2c1c(C)c1c(n2)c2ccccc2cc1,Cc1cccc2c1c(C)c1c(n2)c2ccccc2cc1,341.4,0.149276926,-0.2241,-7.7345,2.39732,367.360587868159,0.192600195,-0.7935,-7.5538,37.42901,-1.069,-8.499,3.39774,NaN,NaN,100,NaN,100,NaN,NaN
YNVOMSDITJMNET-UHFFFAOYSA-N,OC(=O)c1cscc1,OC(=O)c1cscc1,230.3,0.034051853,0.6836,-9.3459,1.98240,294.84946113080537,0.000997038,-0.8694,-9.09,20.95874,-1.015,-9.549,2.2996,NaN,NaN,100,NaN,100,NaN,NaN
FGWRMMTYIZKYMA-UHFFFAOYSA-N,C[Si](C(C)(C)C)(O)C,C[Si](C(C)(C)C)(O)C,NaN,NaN,NaN,NaN,NaN,NaN,NaN,NaN,Nan,NaN,NaN,NaN,NaN,NaN,NaN,100,NaN,100,NaN,NaN
JMRKOGDJNHPMHS-JTQLQIEISA-N,OC(=O)CC[C@@H](C(=O)O)NCc1c(cnc(c1O)C)COP(=O)(O)O,OC(=O)CC[C@@H](C(=O)O)NCc1c(cnc(c1O)C)COP(=O)(O)O,246.7,0.114845726,0.8909,-8.9203,4.52930,292.96833271621847,0.104033181,0.008,-8.5196,156.46668,-0.502,-9.273,3.60596,NaN,NaN,591,NaN,591,NaN,NaN
OMQCHZMNZYMAPW-UHFFFAOYSA-N,N#CC(=C1C=C(C=Cc2ccc(cc2)N(C)C)OC(=C1)C=Cc1ccc(cc1)N(C)C)C(=O)O,N#CC(=C1C=C(C=Cc2ccc(cc2)N(C)C)OC(=C1)C=Cc1ccc(cc1)N(C)C)C(=O)O,364.7,1.202065398,-0.5519,-7.2569,7.95436,390.25558201291676,0.616414174,-1.1729,-7.5354,168.24737,-1.418,-8.349,14.27001,400.31058055417617,1.0427731914,459,NaN,459,NaN,NaN
GRIUQZFULYFTLZ-UHFFFAOYSA-N,N#CC(=C1C=C(C=Cc2ccc(cc2)N(c2ccccc2)c2ccccc2)OC(=C1)C=Cc1ccc(cc1)N(c1ccccc1)c1ccccc1)C(=O)O,N#CC(=C1C=C(C=Cc2ccc(cc2)N(c2ccccc2)c2ccccc2)OC(=C1)C=Cc1ccc(cc1)N(c1ccccc1)c1ccccc1)C(=O)O,376.0,1.776104153,-0.8376,-7.0953,7.78277,405.70745551539153,0.427533676,-1.5104,-7.2232,217.01964,-1.548,-8.233,11.54772,401.59425066964485,1.5108945447,460,NaN,460,NaN,NaN
FVKFNLCCKOHMFT-UHFFFAOYSA-N,O=C(c1ccc2c(c1)c(=O)c1c(o2)cccc1)c1ccccc1,O=C(c1ccc2c(c1)c(=O)c1c(o2)cccc1)c1ccccc1,301.8,0.004821094,-0.3161,-8.8535,3.26127,367.46946771044355,4.7098e-05,-1.1448,-9.0409,35.97085,-1.063,-9.525,3.13118,NaN,NaN,315,NaN,315,NaN,MeCN
YAKMLONNRQOWGW-UHFFFAOYSA-N,COc1ccc(c(c1)O)C=Nc1ccccc1,COc1ccc(c(c1)O)C=Nc1ccccc1,295.4,0.759666345,0.2596,-7.9201,1.08110,348.3680764414264,0.000413818,-0.4869,-8.405,54.65825,-0.458,-8.962,1.29169,NaN,NaN,365,NaN,365,NaN,NaN
WQNWQUXCGHTAPM-UHFFFAOYSA-N,CCCCC(COc1cc(C=Cc2ccc(cc2)N(C)C)c(cc1C=Cc1ccc(cc1)N(C)C)OCC(CCCC)CC)CC,C(COc1cc(C=Cc2ccc(cc2)N(C)C)c(cc1C=Cc1ccc(cc1)N(C)C)OCC(C)CC)CC,362.5,2.295697319,0.3512,-6.5163,1.62139,342.4977856505626,1.11194888,-0.1229,-7.176,49.44795,-0.48,-7.756,2.22882,NaN,NaN,419,NaN,419,NaN,NaN
GZMPURGRPFOJMG-UHFFFAOYSA-N,CCCCC(COc1cc(C=Cc2ccc(cc2)OC)c(cc1C=Cc1ccc(cc1)OC)OCC(CCCC)CC)CC,C(COc1cc(C=Cc2ccc(cc2)OC)c(cc1C=Cc1ccc(cc1)OC)OCC(C)CC)CC,351.3,2.015994093,0.136,-6.9456,1.56888,333.0222895662199,1.019450697,-0.2012,-7.431,46.37400,-0.518,-7.969,1.4931,370.19047237919335,1.8013519139,394,NaN,394,NaN,NaN
HNYWONMLUCAUPJ-UHFFFAOYSA-N,CCCCC(COc1cc(C=Cc2ccc(cc2)C)c(cc1C=Cc1ccc(cc1)C)OCC(CCCC)CC)CC,C(COc1cc(C=Cc2ccc(cc2)C)c(cc1C=Cc1ccc(cc1)C)OCC(C)CC)CC,347.4,1.937144689,0.014,-7.1449,1.97980,331.2428490662668,1.025519893,-0.1411,-7.4077,69.19264,-0.53,-8.285,2.70873,NaN,NaN,391,NaN,391,NaN,NaN
YZNRKLTXTSUWRI-UHFFFAOYSA-N,CCCCC(COc1cc(C=Cc2ccc(cc2)Cl)c(cc1C=Cc1ccc(cc1)Cl)OCC(CCCC)CC)CC,C(COc1cc(C=Cc2ccc(cc2)Cl)c(cc1C=Cc1ccc(cc1)Cl)OCC(C)CC)CC,364.7,1.919743615,-0.3065,-7.2182,0.57950,328.60906017891244,0.851468723,-0.4553,-7.8198,102.57074,-0.916,-8.297,0.88632,376.56550648212436,1.5647713744,396,NaN,396,NaN,NaN
JMQHJOVAOCCLCN-UHFFFAOYSA-N,CCCCC(COc1cc(C=Cc2ccc(cc2)C#N)c(cc1C=Cc1ccc(cc1)C#N)OCC(CCCC)CC)CC,C(COc1cc(C=Cc2ccc(cc2)C#N)c(cc1C=Cc1ccc(cc1)C#N)OCC(C)CC)CC,359.5,2.241329488,-0.8943,-7.8387,1.48022,342.2141827366924,1.314704525,-0.8839,-7.8838,49.82739,-1.257,-8.806,1.69337,380.68160830617904,1.8901464754,415,NaN,415,NaN,NaN
OWTUZZLNSPRQGQ-UHFFFAOYSA-N,CCCCC(COc1cc(C=Cc2ccc(cc2)[N+](=O)[O-])c(cc1C=Cc1ccc(cc1)[N+](=O)[O-])OCC(CCCC)CC)CC,C(COc1cc(C=Cc2ccc(cc2)[N+](=O)[O-])c(cc1C=Cc1ccc(cc1)[N+](=O)[O-])OCC(C)CC)CC,389.6,2.143121752,-1.189,-7.6682,0.31882,422.1457215032471,0.008832883,-2.4881,-8.2464,65.34685,-1.578,-8.685,1.94289,407.7488506239992,1.7131525325,444,NaN,444,NaN,NaN
JLKIGFTWXXRPMT-UHFFFAOYSA-N,Nc1ccc(cc1)S(=O)(=O)Nc1noc(c1)C,Nc1ccc(cc1)S(=O)(=O)Nc1noc(c1)C,256.3,0.022318893,1.0146,-8.486,6.43588,286.6686668335345,0.017124392,-0.4408,-9.0166,123.57094,-0.464,-9.113,8.49777,NaN,NaN,278.0,NaN,278.0,NaN,NaN
QUNWUDVFRNGTCO-UHFFFAOYSA-N,Cn1cnc2c1c(=O)n(c(=O)[nH]2)C,Cn1cnc2c1c(=O)n(c(=O)[nH]2)C,242.9,0.208781766,0.9577,-8.6068,4.08574,318.47983150655966,0.270769584,-0.9042,-8.7937,36.18603,-0.578,-9.283,4.22958,NaN,NaN,0,NaN,0,NaN,NaN
UNZIDPIPYUMVPA-UHFFFAOYSA-M,CN(c1c(C)n(n(c1=O)c1ccccc1)C)CS(=O)(=O)[O-].O.[Na+],CN(c1c(C)n(n(c1=O)c1ccccc1)C)CS(=O)(=O)[O-].O.[Na+],NaN,NaN,NaN,NaN,NaN,NaN,NaN,NaN,Nan,NaN,NaN,NaN,NaN,NaN,NaN,100,NaN,100,NaN,NaN
IIBYAHWJQTYFKB-UHFFFAOYSA-N,Clc1ccc(cc1)C(=O)NCCc1ccc(cc1)OC(C(=O)O)(C)C,Clc1ccc(cc1)C(=O)NCCc1ccc(cc1)OC(C(=O)O)(C)C,248.2,0.073590497,0.8224,-8.4161,3.83376,290.02151673802024,0.00491745,-0.2437,-8.4418,213.27202,-0.422,-9.064,5.28731,NaN,NaN,1383,NaN,1383,NaN,NaN
RTHCYVBBDHJXIQ-UHFFFAOYSA-N,CNCCC(c1ccccc1)Oc1ccc(cc1)C(F)(F)F,CNCCC(c1ccccc1)Oc1ccc(cc1)C(F)(F)F,239.5,0.021085842,1.3471,-8.7264,5.18463,275.0925192045788,0.007788296,0.0775,-8.7881,326.55718,-0.265,-9.421,6.90196,NaN,NaN,385,NaN,385,NaN,NaN
ULGZDMOVFRHVEP-RWJQBGPGSA-N,CC[C@H]1OC(=O)[C@H](C)[C@@H](O[C@@H]2O[C@@H](C)[C@@H]([C@](C2)(C)OC)O)[C@H](C)[C@@H](O[C@@H]2O[C@H](C)C[C@@H]([C@H]2O)N(C)C)[C@](C[C@H](C(=O)[C@@H]([C@H]([C@]1(C)O)O)C)C)(C)O,CC[C@H]1OC(=O)[C@H](C)[C@@H](O[C@@H]2O[C@@H](C)[C@@H]([C@](C2)(C)OC)O)[C@H](C)[C@@H](O[C@@H]2O[C@H](C)C[C@@H]([C@H]2O)N(C)C)[C@](C[C@H](C(=O)[C@@H]([C@H]([C@]1(C)O)O)C)C)(C)O,NaN,NaN,NaN,NaN,NaN,NaN,NaN,NaN,Nan,NaN,NaN,NaN,NaN,NaN,NaN,1682,NaN,1682,NaN,NaN
HEMJJKBWTPKOJG-UHFFFAOYSA-N,Cc1ccc(c(c1)OCCCC(C(=O)O)(C)C)C,Cc1ccc(c(c1)OC(C(=O)O)(C)C)C,241.1,0.014248649,1.408,-8.8486,3.97029,285.5462883590596,0.019653627,0.248,-8.6084,87.80599,0.341,-8.732,0.9942,NaN,NaN,830,NaN,830,NaN,NaN
HEFNNWSXXWATRW-UHFFFAOYSA-N,CC(Cc1ccc(cc1)C(C(=O)O)C)C,CC(Cc1ccc(cc1)C(C(=O)O)C)C,236.1,0.018769606,1.5466,-8.8193,1.87450,280.8249114507444,0.026535975,0.109,-8.5157,140.08573,0.109,-9.395,1.80549,NaN,NaN,1214,NaN,1214,NaN,NaN
CMWTZPSULFXXJA-UHFFFAOYSA-N,COc1ccc2c(c1)ccc(c2)C(C(=O)O)C,COc1ccc2c(c1)ccc(c2)C(C(=O)O)C,289.9,0.057648567,0.7188,-7.9126,2.75261,324.1416951777873,0.024292771,-0.2294,-7.9343,69.48854,-0.616,-8.708,1.3166,NaN,NaN,252.0,NaN,252.0,NaN,NaN
VAOCPAMSLUNLGC-UHFFFAOYSA-N,OCCn1c(C)ncc1[N+](=O)[O-],OCCn1c(C)ncc1[N+](=O)[O-],NaN,NaN,NaN,NaN,NaN,NaN,NaN,NaN,Nan,NaN,NaN,NaN,NaN,NaN,NaN,720,NaN,720,NaN,NaN
TXCGAZHTZHNUAI-UHFFFAOYSA-N,OC(=O)C(Oc1ccc(cc1)Cl)(C)C,OC(=O)C(Oc1ccc(cc1)Cl)(C)C,244.3,0.017130028,0.9823,-9.0568,3.32359,281.59027573359907,0.001660849,-0.0943,-9.356,113.79648,-0.238,-9.154,4.25892,NaN,NaN,601,NaN,601,NaN,NaN
VMXUWOKSQNHOCA-UHFFFAOYSA-N,CNC(=C[N+](=O)[O-])NCCSCc1ccc(o1)CN(C)C,CNC(=C[N+](=O)[O-])NCCSCc1ccc(o1)CN(C)C,295.5,0.002990371,1.0173,-8.231,7.17119,410.272000018212,0.018487754,-1.7572,-8.0836,106.36273,-0.628,-9.016,8.64434,NaN,NaN,299,NaN,299,NaN,NaN
IEDVJHCEMCRBQM-UHFFFAOYSA-N,COc1cc(Cc2cnc(nc2N)N)cc(c1OC)OC,COc1cc(Cc2cnc(nc2N)N)cc(c1OC)OC,246.2,0.137207523,1.5873,-7.9442,3.11566,306.13382322346587,0.143557989,0.2591,-7.9044,34.89050,0.029,-8.674,4.04297,NaN,NaN,1536,NaN,1536,NaN,NaN
MYSWGUAQZAJSOK-UHFFFAOYSA-N,Fc1cc2c(cc1N1CCNCC1)n(cc(c2=O)C(=O)O)C1CC1,Fc1cc2c(cc1N1CCNCC1)n(cc(c2=O)C(=O)O)C1CC1,290.9,0.124543726,-0.0441,-8.3,9.99950,345.45611146699264,8.0631e-05,-1.2742,-9.0385,193.36222,-1.072,-9.023,9.74349,NaN,NaN,105,NaN,105,NaN,NaN
METKIMKYRPQLGS-UHFFFAOYSA-N,OC(COc1ccc(cc1)CC(=O)N)CNC(C)C,OC(COc1ccc(cc1)CC(=O)N)CNC(C)C,248.3,0.043389676,1.3778,-8.4207,5.86452,290.157262825892,0.001625825,0.2531,-8.709,109.70591,-0.173,-9.147,5.78957,NaN,NaN,1345,NaN,1345,NaN,NaN
AQHHHDLHHXJYJD-UHFFFAOYSA-N,OC(COc1cccc2c1cccc2)CNC(C)C,OC(COc1cccc2c1cccc2)CNC(C)C,294.4,0.095621671,0.8877,-7.7514,2.46998,314.9204937909669,0.008658074,-0.0961,-7.8447,62.02323,-0.401,-8.545,2.77676,NaN,NaN,1082.0,NaN,1082.0,NaN,NaN
DCOPUUMXTXDBNB-UHFFFAOYSA-N,OC(=O)Cc1ccccc1Nc1c(Cl)cccc1Cl,OC(=O)Cc1ccccc1Nc1c(Cl)cccc1Cl,261.4,0.020539561,1.0232,-8.0945,2.74409,298.75710459157506,0.012128132,-0.2809,-8.2545,87.61959,-0.549,-8.558,0.85356,NaN,NaN,113,NaN,113,NaN,NaN
RYYVLZVUVIJVGH-UHFFFAOYSA-N,Cn1cnc2c1c(=O)n(C)c(=O)n2C,Cn1cnc2c1c(=O)n(C)c(=O)n2C,247.2,0.217854991,1.0096,-8.4029,3.89100,322.3718107267386,0.253240513,-0.8423,-8.6726,20.43985,-0.445,-8.974,3.68934,NaN,NaN,0,NaN,0,NaN,NaN
FFGPTBGBLSHEPO-UHFFFAOYSA-N,NC(=O)N1c2ccccc2C=Cc2c1cccc2,NC(=O)N1c2ccccc2C=Cc2c1cccc2,288.9,0.207841158,0.3419,-8.2547,3.76213,307.1957344041221,0.214568556,-0.1964,-8.0616,60.90946,-0.634,-8.679,3.75132,NaN,NaN,1378.0,NaN,1378.0,NaN,NaN
VGIFZFAQBZBUNN-UHFFFAOYSA-N,COC1=CC=CC(=CC1)c1ccc(cc1)N(C)C,COC1=CC=CC(=CC1)c1ccc(cc1)N(C)C,272.3,0.152118652,1.3599,-7.0866,2.03312,294.77935902402197,0.052214187,0.4875,-7.6484,52.53208,0.276,-8.036,1.75195,NaN,NaN,0,NaN,0,NaN,NaN
NIHNNTQXNPWCJQ-UHFFFAOYSA-N,c1ccc2c(c1)Cc1c2cccc1,c1ccc2c(c1)Cc1c2cccc1,263.2,0.236136232,0.883,-8.1352,0.53927,294.9897654187572,0.373888193,0.056,-7.9191,3.01039,-0.414,-8.865,0.59862,NaN,NaN,375.0,NaN,261.0,NaN,NaN
CAUZOVGNAVRJQF-UHFFFAOYSA-N,CCCCN=Cc1cccs1,CN=Cc1cccs1,269.4,0.000979812,0.4778,-8.5708,0.89170,316.9330225089562,0.393949745,-0.6281,-8.3581,54.38582,-0.726,-9.101,1.49828,NaN,NaN,253,NaN,253,NaN,NaN
JRSYZTBKIBDNLM-UHFFFAOYSA-N,CCCCN=Cc1ccc2c(c1)Cc1c2cccc1,CN=Cc1ccc2c(c1)Cc1c2cccc1,282.6,0.658362691,0.2958,-8.0282,0.63323,317.33861890325994,0.636587523,-0.4752,-7.9045,11.56164,-0.672,-8.781,1.38961,NaN,NaN,305,NaN,305,NaN,NaN
DYUSSTBKAVGHRS-UHFFFAOYSA-N,CCCCCCCCC1(CCCCCCCC)c2cc(C=NCCCC)ccc2c2c1cc(C=NCCCC)cc2,C1(C)c2cc(C=NC)ccc2c2c1cc(C=NC)cc2,300.4,1.029142617,-0.0437,-7.9452,1.73383,333.11176358276106,0.774447691,-0.746,-7.8942,10.75390,-0.818,-8.696,2.29156,303.0509215126111,1.0974663611,306,NaN,306,NaN,NaN