inchikey,smi_pre,smi_post,lambda_sTDA (nm),f1_sTDA,lumo_dft,homo_dft,dmom_dft (D),lambda_z (nm),f1_z,lumo_z,homo_z,dmom_z (D),lumo_mopac,homo_mopac,dmom_mopac (D),lambda_tddft (nm),f1_tddft,lambda_exp_max (nm),epsilon_exp_max ,lambda_exp_min (nm),epsilon_exp_min ,solvent
WSPLMWFWANPJMN-UHFFFAOYSA-N,C1CCN(CC1)c1ccc(cc1)C=c1oc(=Cc2ccccc2)c2c1cccc2,C1CCN(CC1)c1ccc(cc1)C=c1oc(=Cc2ccccc2)c2c1cccc2,364.7,0.86018667,-0.0123,-6.8191,1.15185,371.09906736157933,0.337141411,-0.4072,-7.1683,91.76842,-0.989,-7.886,1.65109,NaN,NaN,397,29300.0,397,29300.0,NaN
IBSQPLPBRSHTTG-UHFFFAOYSA-N,Cc1ccccc1Cl,Cc1ccccc1Cl,235.2,0.003272405,1.4816,-8.9736,1.49469,271.1222357435024,0.008447728,0.2532,-9.1512,83.21343,-0.145,-9.601,1.82571,NaN,NaN,266.0,NaN,193.0,NaN,NaN
YRVGZJSMDISESG-UHFFFAOYSA-N,COc1ccc2c(c1)c1c(coc1cc2)CC(=O)O,COc1ccc2c(c1)c1c(coc1cc2)CC(=O)O,288.8,0.154428876,0.8798,-7.6558,1.53096,338.3848209757196,0.242213193,-0.4922,-7.6544,72.02579,-0.67,-8.517,1.523,NaN,NaN,298,NaN,298,NaN,NaN
QWORBITTWVHKPI-UHFFFAOYSA-N,CSc1ccc(cc1)C=c1oc(=Cc2ccccc2)c2c1cccc2,CSc1ccc(cc1)C=c1oc(=Cc2ccccc2)c2c1cccc2,361.3,0.851508346,-0.1706,-7.0434,1.99189,365.73509854130873,0.362820256,-0.5017,-7.3382,129.16130,-1.097,-7.997,3.42087,374.5293408930626,0.734915228,386,27500.0,386,27500.0,NaN
JEWXUTUSQZOPOD-UHFFFAOYSA-N,CCCCCCc1nc2c(ccc(c2nc1CCCCCC)c1ccc(s1)C=C(C(=O)O)C#N)c1ccc(s1)c1ccc(cc1)N(c1ccccc1)c1ccccc1,Cc1nc2c(ccc(c2nc1C)c1ccc(s1)C=C(C(=O)O)C#N)c1ccc(s1)c1ccc(cc1)N(c1ccccc1)c1ccccc1,399.9,1.996527698,-1.163,-7.1307,8.25759,433.2082404105648,0.907402203,-1.6456,-7.3047,654.97114,-1.762,-8.04,5.92678,NaN,NaN,510,NaN,510,NaN,NaN
ZVZZUCOYTKPFGA-UHFFFAOYSA-N,CCCCCCCCn1c(=O)c2c(c1c1ccc(s1)c1ccc(s1)c1n(CCCCCCCC)c(=O)c3c1c(=O)n(c3c1ccc(s1)C)CCCCCCCC)c(=O)n(c2c1ccc(s1)C)CCCCCCCC,Cn1c(=O)c2c(c1c1ccc(s1)c1ccc(s1)c1n(C)c(=O)c3c1c(=O)n(c3c1ccc(s1)C)C)c(=O)n(c2c1ccc(s1)C)C,519.4,2.473859792,-1.4238,-6.7964,0.20692,494.7493950738375,1.384874633,-1.699,-7.3905,5.18169,-1.604,-8.225,0.3173,580.3145003942872,2.0188876346,629,NaN,629,NaN,NaN
ACKIPRQROWPKNS-UHFFFAOYSA-N,CCCCC(COc1c(c2ccccc2)c(C#N)c(c(c1C#N)c1ccccc1)OC)CC,C(COc1c(c2ccccc2)c(C#N)c(c(c1C#N)c1ccccc1)OC)CC,282.8,0.374845624,-0.5595,-8.977,2.47193,334.0091551872404,0.171687161,-1.0532,-8.5704,89.68907,-1.522,-9.629,0.3984,NaN,NaN,413.0,NaN,279.0,NaN,NaN
UWTHLEMFSFPSJD-UHFFFAOYSA-N,CCCCCCn1c2ccc(cc2c2c1cccc2)C=C(c1ccc(s1)C=C(C(=O)O)C#N)C#N,Cn1c2ccc(cc2c2c1cccc2)C=C(c1ccc(s1)C=C(C(=O)O)C#N)C#N,361.9,0.700434212,-1.2451,-7.929,6.71001,439.3486832229045,0.510684115,-1.7899,-7.8552,293.94701,-1.951,-8.489,5.62317,NaN,NaN,488,42250,488,42250,chloroform
DFCYQBCBKZRPIG-UHFFFAOYSA-N,COc1ccc(nn1)C#Cc1ccc(cc1)N(c1ccc(cc1)C#Cc1ccc(nn1)OC)c1ccc(cc1)C#Cc1ccc(nn1)OC,COc1ccc(nn1)C#Cc1ccc(cc1)N(c1ccc(cc1)C#Cc1ccc(nn1)OC)c1ccc(cc1)C#Cc1ccc(nn1)OC,344.5,0.009669977,-0.0735,-7.2286,4.50305,375.2548377890547,0.521732981,-0.5979,-7.1857,8.28374,-1.18,-8.137,4.44996,NaN,NaN,375.0,64597,375.0,64597,dichloromethane
RPEKXQYYSIHEBS-UHFFFAOYSA-N,Nc1ccc2c(c1)nc1c(n2)c2c3c1cccc3ccc2,Nc1ccc2c(c1)nc1c(n2)c2c3c1cccc3ccc2,336.0,0.033988958,-0.2943,-7.6529,1.37391,380.55309516729176,0.427531445,-0.8461,-7.5238,38.02746,-1.295,-8.397,1.43132,NaN,NaN,556.0,NaN,314.0,NaN,NaN
KFFCKOBAHMGTMW-BNQQZAEZSA-N,OC[C@H]1O[C@@H](Oc2ccc(cc2OC)C2OCC3C2COC3c2ccc(c(c2)OC)OC)[C@@H]([C@H]([C@@H]1O)O)O,OC[C@H]1O[C@@H](Oc2ccc(cc2OC)C2OCC3C2COC3c2ccc(c(c2)OC)OC)[C@@H]([C@H]([C@@H]1O)O)O,249.2,0.067936498,1.5897,-8.2372,3.89818,289.81813559023766,0.024935771,0.5361,-8.3066,229.04028,-0.164,-9.135,3.92029,NaN,NaN,NaN,NaN,NaN,NaN,NaN
GJCOSYZMQJWQCA-UHFFFAOYSA-N,c1ccc2c(c1)Oc1c(C2)cccc1,c1ccc2c(c1)Oc1c(C2)cccc1,255.2,0.062824957,1.3008,-8.0083,1.00086,279.87403703273964,0.026176621,0.5597,-8.2798,23.71985,-0.018,-8.685,1.31338,NaN,NaN,254,NaN,254,NaN,NaN
VCXWVNIOSUDRGT-UHFFFAOYSA-N,COc1ccc(cc1)C(=Cc1ccc(cc1)C#N)c1ccc(cc1)OC,COc1ccc(cc1)C(=Cc1ccc(cc1)C#N)c1ccc(cc1)OC,310.4,0.890492394,-0.1135,-7.746,6.72103,322.2880124915614,0.496044905,-0.469,-7.7828,39.63100,-0.813,-8.731,5.70749,327.558566508783,0.7738994919,291,NaN,291,NaN,NaN
SWXLGHSWKTXLGP-UHFFFAOYSA-N,CCN(c1ccc2c(c1)oc(=O)c(c2)C=CC(=O)c1c(=O)oc2c(c1O)ccc(c2)N(CC)CC)CC,CCN(c1ccc2c(c1)oc(=O)c(c2)C=CC(=O)c1c(=O)oc2c(c1O)ccc(c2)N(CC)CC)CC,375.0,1.82474722,-0.6706,-7.4111,7.25868,428.5661887504448,1.006675549,-1.465,-7.6401,174.52418,-1.072,-8.316,7.63571,NaN,NaN,511.0,NaN,449.0,NaN,ACN
LPHJZUIZVLDDCU-UHFFFAOYSA-N,N#CC(=C1C(CSc2c1cccc2)C(C(C)C)C[N+](=O)[O-])C#N,N#CC(=C1C(CSc2c1cccc2)C(C(C)C)C[N+](=O)[O-])C#N,337.2,0.136589448,-1.0628,-8.6483,7.22821,430.2019375624693,0.004128572,-2.8668,-8.9179,90.54808,-1.623,-8.861,6.70481,NaN,NaN,NaN,NaN,NaN,NaN,NaN
RQQGSWFJLYYHCF-UHFFFAOYSA-N,OCC1OC(C(C1O)O)n1c(C=Cc2ccc(cc2)OC)nc2c1nc(N)[nH]c2=O,OCC1OC(C(C1O)O)n1c(C=Cc2ccc(cc2)OC)nc2c1nc(N)[nH]c2=O,305.7,1.413356809,0.3417,-7.4284,2.60556,368.3428354293038,0.511521257,-0.6127,-7.5812,172.68912,-0.767,-8.445,4.52247,321.63586440084947,1.1400800639,350,NaN,350,NaN,NaN
IHGLOPOJOUXBMF-UHFFFAOYSA-N,Clc1ccc2c(c1)cc1c(n2)n(nc1C(F)(F)F)c1ccccc1,Clc1ccc2c(c1)cc1c(n2)n(nc1C(F)(F)F)c1ccccc1,336.9,0.144308763,-0.8582,-8.3116,2.02342,368.67141958222913,0.166952029,-1.6625,-8.3376,242.42800,-1.937,-9.067,2.96527,NaN,NaN,384,NaN,384,NaN,NaN
ZNSYWDZTUSYURE-UHFFFAOYSA-N,NCCc1c[nH]c2c1cc(OC)cc2F,NCCc1c[nH]c2c1cc(OC)cc2F,263.8,0.075606414,1.6047,-7.615,2.71025,NaN,0.0,0.0125,-7.9144,96.60933,-0.325,-8.41,2.46182,NaN,NaN,275.0,NaN,245.0,NaN,NaN
ADNBSZVRERUTNF-UHFFFAOYSA-N,CCCCCCCCOc1ccc(cc1)c1ccc2c(c1)Sc1c(N2c2ccc(cc2)OCCCCCCCC)ccc(c1)c1ccc(o1)C=C(C(=O)O)C#N,COc1ccc(cc1)c1ccc2c(c1)Sc1c(N2c2ccc(cc2)OC)ccc(c1)c1ccc(o1)C=C(C(=O)O)C#N,377.8,1.105654767,-0.8395,-7.1035,4.55655,490.44382280658095,0.694615763,-1.7076,-7.3221,301.53299,-1.665,-7.612,4.67769,NaN,NaN,473.0,24309,358.0,24309,NaN
VXDRTMYQTMPMIA-UHFFFAOYSA-N,Clc1ccc(cc1)Cn1c(nc(c1c1ccco1)c1ccco1)c1ccccc1,Clc1ccc(cc1)Cn1c(nc(c1c1ccco1)c1ccco1)c1ccccc1,256.6,0.584939625,1.0513,-7.5003,2.98003,400.3364494849973,0.34138062,-0.3192,-6.9794,144.79592,-0.553,-8.369,4.00611,NaN,NaN,287,NaN,287,NaN,NaN
HBSUHZVYSGMJLR-WVQRXBFSSA-N,C[C@@]12CCC(C2(C)C)CC1=Nc1ccc(cc1)[N+](=O)[O-],C[C@@]12CCC(C2(C)C)CC1=Nc1ccc(cc1)[N+](=O)[O-],314.0,2.637e-06,-0.1664,-8.8619,6.99480,418.4414391005861,1.0518e-05,-2.1801,-9.0285,271.03763,-1.044,-9.538,7.96646,NaN,NaN,316.6,NaN,316.6,NaN,NaN
OZWKMVRBQXNZKK-UHFFFAOYSA-N,OC(=O)C1CCn2c1ccc2C(=O)c1ccccc1,OC(=O)C1CCn2c1ccc2C(=O)c1ccccc1,292.7,0.002450077,0.3329,-8.3983,2.86495,364.0170240913202,0.0020139,-0.8028,-8.2876,103.00501,-0.585,-9.2,1.45002,NaN,NaN,NaN,NaN,NaN,NaN,NaN
VSFIKHFVWBEFKU-MUUNZHRXSA-N,CCCCOc1cc(ccc1OCCCC)[C@H](NCCCNCCC(c1ccccc1)c1ccccc1)C,COc1cc(ccc1OC)[C@H](NCNC(c1ccccc1)c1ccccc1)C,236.1,0.015628751,1.3934,-8.406,0.65735,290.36112038759643,0.013768909,0.3648,-8.202,75.19187,0.048,-8.56,2.71301,NaN,NaN,500,NaN,500,NaN,NaN
RPRRSHVRRRNRJM-UHFFFAOYSA-N,CCCCCCn1c2ccc(cc2c2c1cccc2)C=Cc1cc(=O)oc2c1ccc(c2)C,Cn1c2ccc(cc2c2c1cccc2)C=Cc1cc(=O)oc2c1ccc(c2)C,309.8,0.600695947,-0.2616,-7.692,7.32996,334.18921403100717,0.429998639,-0.9947,-7.7742,151.02857,-1.035,-8.341,7.3628,NaN,NaN,393,NaN,393,NaN,chloroform
UUDBIJHZYMAALL-UHFFFAOYSA-N,CN1c2ccccc2C(C21C=Nc1c(O2)c(C=Cc2ccc3c(c2)ccc2c3C=CC(O2)(c2ccccc2)c2ccccc2)cc2c1cccc2)(C)C,CN1c2ccccc2C(C21C=Nc1c(O2)c(C=Cc2ccc3c(c2)ccc2c3C=CC(O2)(c2ccccc2)c2ccccc2)cc2c1cccc2)(C)C,330.1,0.358828137,-0.0672,-7.3227,1.46700,353.43272065422934,0.128118666,-0.4216,-7.3508,48.98014,-0.996,-8.221,1.93849,NaN,NaN,592.0,NaN,490.0,NaN,NaN
GXIKAJIMZDLBDX-UHFFFAOYSA-N,Cc1cccc(n1)c1nc2c(o1)c1ccccc1c1c2cccc1,Cc1cccc(n1)c1nc2c(o1)c1ccccc1c1c2cccc1,305.9,0.469697042,0.1052,-7.6999,1.37272,409.5943125388294,0.509984059,-0.8732,-7.2435,29.74548,-1.124,-8.575,1.6602,NaN,NaN,390,NaN,390,NaN,NaN
AWJFREKYPJBFBG-UHFFFAOYSA-N,OCCNc1nc2c(n1C)c(=O)n(c(=O)n2C)C,OCCNc1nc2c(n1C)c(=O)n(c(=O)n2C)C,249.3,0.341970784,1.3361,-7.8842,5.84009,336.00053768429177,0.258699876,-0.7304,-8.4089,38.91416,-0.363,-8.737,4.94658,NaN,NaN,NaN,NaN,NaN,NaN,NaN
PTNWHEHDBNNKEO-UHFFFAOYSA-N,OC(=O)c1ccc(s1)c1cccs1,OC(=O)c1ccc(s1)c1cccs1,290.8,0.670665813,-0.1394,-8.2812,2.54981,399.69116184881904,0.650988332,-1.4392,-8.0188,95.38783,-1.566,-9.192,3.07013,NaN,NaN,374,NaN,374,NaN,NaN
BUCORZSTKDOEKQ-UHFFFAOYSA-N,CN=C1CN(O)C(=c2c(=N1)ccc(c2)Cl)c1ccccc1,CN=C1CN(O)C(=c2c(=N1)ccc(c2)Cl)c1ccccc1,415.7,0.28456341,-0.639,-7.3476,5.34919,418.15918517876446,0.273822969,-1.4032,-7.9925,101.77779,-1.395,-8.588,3.4975,NaN,NaN,740,NaN,740,NaN,NaN
ZKQGSSZNZGKUHL-UHFFFAOYSA-N,O=c1ccc2c(o1)ccc(c2)N=Cc1ccc(cc1)N(C)C,O=c1ccc2c(o1)ccc(c2)N=Cc1ccc(cc1)N(C)C,308.5,1.138398419,0.1139,-7.5312,9.96106,342.971503196414,0.168808417,-0.9307,-8.0274,214.55094,-1.072,-8.347,8.62672,321.55244828372696,1.047972987,365,NaN,365,NaN,NaN
ZEZLBKMADCZYDN-UHFFFAOYSA-N,Cc1ccc(s1)C#Cc1cccc(n1)c1cccc(n1)C#Cc1ccc(s1)C,Cc1ccc(s1)C#Cc1cccc(n1)c1cccc(n1)C#Cc1ccc(s1)C,295.4,2.675365124,0.0473,-7.7951,0.00576,381.959945796376,1.066805726,-0.514,-7.4131,8.31156,-1.079,-8.809,0.00108,314.1862880980169,2.08633166,340.0,NaN,336.0,NaN,ACN
NNFKCUGRJWULKG-UHFFFAOYSA-N,Cn1cc(n(c1=S)C)P(c1ccccc1)c1ccccc1,Cn1cc(n(c1=S)C)P(c1ccccc1)c1ccccc1,258.0,0.133517479,0.8065,-7.2334,6.14914,370.21259601523934,7.498e-06,0.2321,-7.8981,155.47249,-0.793,-7.852,7.40299,NaN,NaN,209,NaN,209,NaN,NaN
CGNNCGIGPMLXGS-OAQYLSRUSA-N,COc1ccc2c(c1)[nH]cc2[C@@H](c1ccccc1)C=Cc1ccccc1,COc1ccc2c(c1)[nH]cc2[C@@H](c1ccccc1)C=Cc1ccccc1,273.1,0.147017406,0.9387,-7.3797,0.84858,310.426135216584,0.021305445,0.2784,-7.613,81.55555,-0.05,-8.208,0.70281,NaN,NaN,NaN,NaN,NaN,NaN,NaN
NRQQWAHWVSPOCW-UHFFFAOYSA-N,OC1=C(C(c2ccccc2)Nc2nc3c([nH]2)cccc3)C(=O)c2c(C1=O)cccc2,OC1=C(C(c2ccccc2)Nc2nc3c([nH]2)cccc3)C(=O)c2c(C1=O)cccc2,380.8,0.000664683,-1.248,-7.6279,3.35814,433.96639273889974,0.015093214,-2.2021,-7.7686,47.55942,-1.946,-8.373,4.79504,NaN,NaN,418,5754.399373371566,418,5754.399373371566,NaN
AFJGGVKGGIUNFB-UHFFFAOYSA-N,Clc1ccc(cc1)N=Nc1c(N)n[nH]c1N,Clc1ccc(cc1)N=Nc1c(N)n[nH]c1N,379.4,0.003786027,-0.0758,-7.7234,3.76894,489.86249863889236,0.005829078,-1.1451,-8.0744,93.24889,-0.888,-8.714,3.54916,NaN,NaN,483.0,NaN,369.0,NaN,NaN
WLTYUYNCDLBKNE-UHFFFAOYSA-N,c1ccc(nc1)CN(c1ccc(cc1)C=Cc1nccnc1)Cc1ccccn1,c1ccc(nc1)CN(c1ccc(cc1)C=Cc1nccnc1)Cc1ccccn1,325.8,1.234525305,-0.0369,-7.3776,1.91996,356.17408332520444,0.048967734,-0.6317,-7.6577,48.84848,-0.988,-8.445,1.92539,343.76075916832406,1.1655697057,259,NaN,259,NaN,NaN
MXFSEZUQIOUUHD-UHFFFAOYSA-N,COc1ccc(cc1)c1ccc(cc1)c1n(C(=O)OC(C)(C)C)c(=O)c2c1c(=O)n(c2c1ccc(cc1)c1ccc(cc1)OC)C(=O)OC(C)(C)C,COc1ccc(cc1)c1ccc(cc1)c1n(C(=O)OC(C)(C)C)c(=O)c2c1c(=O)n(c2c1ccc(cc1)c1ccc(cc1)OC)C(=O)OC(C)(C)C,378.9,1.322946807,-0.7934,-7.4832,2.23062,413.97061237229934,0.794213007,-1.55,-7.8431,19.67601,-1.295,-8.624,2.62689,NaN,NaN,468,17400,468,17400,dichloromethane
MXLZBWPWGZKNGB-UHFFFAOYSA-N,Fc1c(C#Cc2ccccc2)c(C#Cc2ccccc2)c(c(c1C#Cc1ccccc1)F)C#Cc1ccccc1,Fc1c(C#Cc2ccccc2)c(C#Cc2ccccc2)c(c(c1C#Cc1ccccc1)F)C#Cc1ccccc1,328.4,0.902129451,-0.6392,-7.8357,2.10259,393.85069379130766,0.453081404,-0.9575,-7.4555,118.11460,-1.533,-8.805,2.39354,348.1528501888112,0.8410984656,400.0,NaN,305.0,NaN,NaN
DMEZADCHHNPYSC-UHFFFAOYSA-N,C[Si](c1ccc2c3c1ccc1c3c(cc2)c(cc1)[Si](O)(C)C)(O)C,C[Si](c1ccc2c3c1ccc1c3c(cc2)c(cc1)[Si](O)(C)C)(O)C,341.7,0.373445959,-0.2714,-7.5501,0.72867,360.9438090407676,0.015309966,-0.5093,-7.1285,41.28235,-0.991,-8.154,0.00801,NaN,NaN,355.0,42000,324.0,12000,NaN
HKWYSTVPRGEAEV-UHFFFAOYSA-N,C=CCN1c2ccccc2C(C21C=Cc1c(O2)c(cc2c1cccc2)c1nc(c(o1)c1ccccc1)c1ccccc1)(C)C,C=CCN1c2ccccc2C(C21C=Cc1c(O2)c(cc2c1cccc2)c1nc(c(o1)c1ccccc1)c1ccccc1)(C)C,327.6,0.199271835,-0.015,-7.5258,1.99795,395.61007787333654,0.428980336,-0.781,-7.1618,49.33391,-1.164,-8.363,1.56673,NaN,NaN,304,NaN,304,NaN,Toluene
OPTASPLRGRRNAP-UHFFFAOYSA-N,Nc1ccnc(=O)[nH]1,Nc1ccnc(=O)[nH]1,257.0,0.011494282,0.9493,-8.471,8.17385,321.9532547533203,0.195652912,-0.7648,-8.8839,36.21166,-0.423,-9.374,7.78613,NaN,NaN,250,NaN,250,NaN,NaN
CDMGBJANTYXAIV-MHZLTWQESA-N,Fc1ccc(cc1)c1nc([nH]c1c1ccncc1)c1ccc(cc1)[S@@](=O)C,Fc1ccc(cc1)c1nc([nH]c1c1ccncc1)c1ccc(cc1)[S@@](=O)C,291.1,0.772931039,-0.0306,-7.969,1.64667,378.11588412779406,0.490250417,-0.9073,-7.6263,121.68714,-1.084,-8.77,2.12666,NaN,NaN,448.0,NaN,306.0,NaN,NaN
XKEKLGVRPFMZCS-UHFFFAOYSA-N,Clc1ccc(cc1Cl)C=Cc1ccc(cc1)c1nnc(o1)c1c2ccccc2cc2c1cccc2,Clc1ccc(cc1Cl)C=Cc1ccc(cc1)c1nnc(o1)c1c2ccccc2cc2c1cccc2,367.4,0.654763419,-0.6344,-7.6892,2.48090,392.2309345318053,0.607451752,-1.0784,-7.4608,620.23062,-1.604,-8.674,4.72924,NaN,NaN,NaN,NaN,NaN,NaN,NaN
BUKCPXPDXFJRHI-JMJZKYOTSA-N,OC[C@H]1O[C@H](C[C@@H]1O)n1cc(c2ccco2)c(nc1=O)N,OC[C@H]1O[C@H](C[C@@H]1O)n1cc(c2ccco2)c(nc1=O)N,269.7,0.217734746,0.7272,-8.1854,6.48085,344.0183085613309,0.188980294,-0.7838,-8.1108,56.88386,-0.714,-8.986,5.08383,NaN,NaN,310.0,NaN,306.0,NaN,EtOAc
NWPWGNPPZVZAKO-UHFFFAOYSA-N,O=C1C=CC=C2C1=Cc1c2cccc1,O=C1C=CC=C2C1=Cc1c2cccc1,446.2,0.00656976,-1.4758,-8.4207,3.98521,456.15967036609146,0.005423535,-1.86,-8.3979,54.93233,-1.826,-9.278,3.88879,NaN,NaN,553.0,NaN,377.0,NaN,Ethanol
MNMHULDHZSPDBK-UHFFFAOYSA-N,CCOc1c(F)c(F)c(c(c1F)F)c1c2cc3c(C)cc(n3c(=O)n2c(=O)c1C)C,CCOc1c(F)c(F)c(c(c1F)F)c1c2cc3c(C)cc(n3c(=O)n2c(=O)c1C)C,353.0,0.717720024,-0.7022,-7.5638,6.72933,444.8661586132173,0.469707582,-1.529,-7.5536,150.48953,-1.494,-8.314,6.68157,NaN,NaN,448.0,NaN,278.0,NaN,Cyclohexane
OJPGWXIGRDSMFJ-UHFFFAOYSA-N,CC(=O)C(=NNc1cccnc1)C(=O)C,CC(=O)C(=NNc1cccnc1)C(=O)C,354.9,0.001377937,-0.605,-8.6447,2.67291,436.10340628035055,0.003250777,-1.8066,-8.5339,30.47771,-1.331,-9.182,2.56471,NaN,NaN,351,NaN,351,NaN,NaN
JUQYDPIMNYWSNX-UHFFFAOYSA-N,CCOC(=O)C1=C(c2ccccc2)N(C(=O)C1=Cc1ccc(cc1)c1ccccc1)C,CCOC(=O)C1=C(c2ccccc2)N(C(=O)C1=Cc1ccc(cc1)c1ccccc1)C,357.2,0.808628548,-0.4679,-7.7553,2.13808,365.41172533304945,0.533876444,-0.886,-7.9249,100.97423,-1.065,-8.753,2.63119,388.4459960186711,0.617607695,590.0,14300,421.0,14300,MTHF
LEJMWBSDWKDHTF-UHFFFAOYSA-N,COc1ccc(cc1)N=Nc1ccc(c2c1cccn2)O,COc1ccc(cc1)N=Nc1ccc(c2c1cccn2)O,425.4,0.004871878,-0.5098,-7.5797,3.70759,538.1258611349986,0.034022496,-1.2341,-7.8299,64.61955,-1.34,-8.515,4.37981,NaN,NaN,380.0,NaN,380.0,NaN,NaN
MOPOKYQAPJQNLW-HPMVVLTCSA-N,COC(=O)[C@H](c1ccc(c(c1)Cl)Cl)[C@@H](C=C(c1ccccc1)O[Si](C(C)(C)C)(c1ccccc1)c1ccccc1)C,COC(=O)[C@H](c1ccc(c(c1)Cl)Cl)[C@@H](C=C(c1ccccc1)O[Si](C(C)(C)C)(c1ccccc1)c1ccccc1)C,242.9,0.021189403,1.1103,-8.1911,2.48880,291.24782336270533,0.010127226,-0.2001,-8.0192,304.81254,-0.249,-8.972,3.67689,NaN,NaN,NaN,NaN,NaN,NaN,NaN
GZGHDTDXCHIGRS-UHFFFAOYSA-N,COc1ccc2c(c1)oc(=O)cc2COc1c(C)cccc1C,COc1ccc2c(c1)oc(=O)cc2COc1c(C)cccc1C,280.8,0.350421381,0.1038,-8.3742,3.60840,332.8434856523588,0.349403038,-1.0368,-8.5525,113.76356,-0.922,-9.159,5.24123,NaN,NaN,324,NaN,324,NaN,NaN
HKHQFPYWBFHSJU-UHFFFAOYSA-N,CN(c1ccc(cc1)C=Cc1ccn2c(c1)nc(c2)c1ccccc1)C,CN(c1ccc(cc1)C=Cc1ccn2c(c1)nc(c2)c1ccccc1)C,333.8,1.766142958,0.2273,-6.936,5.92231,380.0864451425618,0.651996082,-0.553,-7.2,71.39097,-0.804,-8.125,4.65155,NaN,NaN,554.0,29512.09226666384,338.0,20892.96130854041,Toluene
MJCVXPOOUPXZQT-UHFFFAOYSA-N,c1ccc(cc1)C=NNc1ncnc2c1[nH]cn2,c1ccc(cc1)C=NNc1ncnc2c1[nH]cn2,294.5,0.927932028,-0.0776,-8.1373,7.94387,324.481021736466,0.374465938,-0.5284,-8.1493,113.16408,-1.08,-9.047,8.4683,305.52276437061545,0.8421576605,268.0,NaN,211.0,NaN,EtOH
QGCLEBUWPRQZBZ-UHFFFAOYSA-N,c1ccc(cc1)c1c2ccccc2c(c2c1cccc2)c1cccc(c1)c1c2ccccc2c(c2c1cccc2)c1ccccc1,c1ccc(cc1)c1c2ccccc2c(c2c1cccc2)c1cccc(c1)c1c2ccccc2c(c2c1cccc2)c1ccccc1,367.6,0.519674759,-0.1421,-7.3114,0.22438,393.7256221197322,0.501484737,-0.6621,-7.0579,8.43846,-1.086,-8.216,0.02407,NaN,NaN,437.0,NaN,397.0,NaN,dichloromethane
MTIKBADWHYHAQM-UHFFFAOYSA-N,Clc1ccc(cc1)NN=C(C(=O)c1ccccc1)c1nc(C)cc(=O)[nH]1,Clc1ccc(cc1)NN=C(C(=O)c1ccccc1)c1nc(C)cc(=O)[nH]1,332.9,0.787767447,-0.8384,-8.2056,4.42380,425.04010423552853,0.013729126,-1.7844,-8.5532,258.33255,-1.474,-9.176,3.28036,NaN,NaN,393.0,19498.445997580457,299.0,7079.457843841381,NaN
QNWOJCZDWIXIGF-UHFFFAOYSA-N,CCOC(=O)c1cc2cc3ccccc3nc2nc1C,CCOC(=O)c1cc2cc3ccccc3nc2nc1C,341.2,0.072774941,-0.8249,-8.3898,2.22473,362.632928942684,0.257044761,-1.4071,-8.2699,32.50301,-1.744,-9.237,5.71379,NaN,NaN,362,NaN,362,NaN,acetone
FBCMNTDXQAPZNY-UHFFFAOYSA-N,O=c1cc(C)c2c(o1)cc1c(c2)nc([nH]1)C=Cc1ccccc1,O=c1cc(C)c2c(o1)cc1c(c2)nc([nH]1)C=Cc1ccccc1,305.2,0.827767205,-0.2046,-8.0237,5.69123,360.8387613664251,0.501809831,-0.9035,-7.9293,103.90233,-1.278,-8.862,5.61219,319.28356254954537,0.8053855827,374.0,NaN,360.0,NaN,Methanol
DQTHIPMWGXJNIB-UHFFFAOYSA-N,COC(=O)C(Cc1ccco1)CNC(=O)OC(C)(C)C,COC(=O)C(Cc1ccco1)CNC(=O)OC(C)(C)C,208.9,0.307993273,2.0433,-8.4683,2.46302,282.68171091086106,0.162566464,0.1618,-8.3555,94.01012,0.256,-9.417,3.03046,NaN,NaN,NaN,NaN,NaN,NaN,NaN
UBSNJIQULZWYCX-UHFFFAOYSA-N,CC1=NN(C(=O)C1=Cc1cn(c2c1cccc2)Cc1ccccc1)c1ccccc1,CC1=NN(C(=O)C1=Cc1cn(c2c1cccc2)Cc1ccccc1)c1ccccc1,360.0,0.248792888,-0.3305,-7.6164,8.02219,358.750574089999,0.039389891,-0.9655,-7.9122,94.56055,-0.992,-8.272,7.47434,NaN,NaN,412,NaN,412,NaN,dichloromethane
JTINJPUSTYZBIV-UHFFFAOYSA-N,CSc1nnn(c1)N=Nc1ccc(c2c1cccn2)O,CSc1nnn(c1)N=Nc1ccc(c2c1cccn2)O,343.5,0.833337425,-0.9599,-8.0302,2.05131,448.89282550870263,0.014355928,-1.7526,-8.1833,107.34503,-1.841,-8.406,1.7997,362.7602346809042,0.7415007015,484,NaN,484,NaN,Methanol
WEIIRUQBCAHXOT-UHFFFAOYSA-N,CCCCCc1c(C=Cc2ccc(cc2)C=C)sc2c1sc(c2)c1nc2c(s1)cccc2,Cc1c(C=Cc2ccc(cc2)C=C)sc2c1sc(c2)c1nc2c(s1)cccc2,369.0,2.423563531,-0.5824,-7.3846,1.71322,457.8441595476501,1.009083756,-1.2445,-7.3101,278.36267,-1.545,-8.382,1.82321,387.72928357644383,2.0764865316,403,34000.0,403,34000.0,NaN
FUZBHDIQYNOOGI-UHFFFAOYSA-N,Cc1ccc2c(c1)c1[nH]cc(c1CC2)C(=O)O,Cc1ccc2c(c1)c1[nH]cc(c1CC2)C(=O)O,272.6,0.392734979,1.0897,-7.6288,2.87557,347.58676312168114,0.285280724,-0.3964,-7.5441,146.36266,-0.313,-8.521,4.30325,NaN,NaN,NaN,NaN,NaN,NaN,NaN
ROVCIMFUQIQGIJ-QZTJIDSGSA-N,C1CC[C@H]([C@@H](C1)NCc1ccccn1)NCc1ccccn1,C1CC[C@H]([C@@H](C1)NCc1ccccn1)NCc1ccccn1,263.8,0.01971027,1.045,-7.7489,4.37686,296.25853860335405,0.004000068,0.1809,-8.6132,54.91172,-0.32,-8.707,4.90582,NaN,NaN,589,NaN,589,NaN,NaN
FTVWIRXFELQLPI-ZDUSSCGKSA-N,Oc1ccc(cc1)[C@@H]1CC(=O)c2c(O1)cc(cc2O)O,Oc1ccc(cc1)[C@@H]1CC(=O)c2c(O1)cc(cc2O)O,278.2,0.089476274,0.4447,-8.473,3.27624,349.84254629092453,2.6837e-05,-0.8844,-8.7126,61.64914,-0.618,-9.443,2.29384,NaN,NaN,420.0,1850,258.0,1540,NaN
ZDKQHDYHMUNGJI-UHFFFAOYSA-N,CN(c1cccc2c1cccc2C#Cc1ccc(cc1)C#Cc1cccc2c1cccc2N(C)C)C,CN(c1cccc2c1cccc2C#Cc1ccc(cc1)C#Cc1cccc2c1cccc2N(C)C)C,350.6,2.02151705,-0.3038,-7.3079,1.40160,348.95637040670886,0.063761668,-0.2962,-7.3887,28.49302,-0.775,-8.541,3.01687,361.417265731641,1.9675715118,524.0,36200,369.0,36200,NaN
YMVXARFQKDILIJ-UHFFFAOYSA-N,O=c1nc(nc2c1cc1cccc(c1n2C)C)c1ccccc1,O=c1nc(nc2c1cc1cccc(c1n2C)C)c1ccccc1,370.8,0.000802428,-1.0245,-8.422,8.83389,397.13068035074843,0.002829415,-1.5295,-8.4919,90.13445,-1.641,-8.952,9.01812,NaN,NaN,455.0,28840.31503126606,288.0,8511.380382023768,NaN
KFPGSHUBSNMBDN-UHFFFAOYSA-N,c1ccc(nc1)c1ccc(cn1)c1cccs1,c1ccc(nc1)c1ccc(cn1)c1cccs1,290.0,0.982321294,0.014,-8.1334,0.50635,330.9775718246227,0.807393044,-0.541,-7.871,92.83364,-1.126,-9.127,0.44297,297.6239690077283,0.9241751821,344.0,NaN,322.0,NaN,NaN
FPYUJUBAXZAQNL-UHFFFAOYSA-N,O=Cc1ccccc1Cl,O=Cc1ccccc1Cl,316.2,2.1407e-05,-0.1872,-9.5561,3.27073,365.8430168353605,5.415e-06,-1.1307,-9.9008,82.74699,-1.056,-10.167,3.0153,NaN,NaN,400,10000,400,10000,NaN
FGSLZFSRPYAYTH-UHFFFAOYSA-N,FC(c1ccc(cc1)C#Cc1c2ccccc2c(c2c1cc1c3ccccc3C(c1c2)(C)C)C#Cc1ccc(cc1)C(F)(F)F)(F)F,FC(c1ccc(cc1)C#Cc1c2ccccc2c(c2c1cc1c3ccccc3C(c1c2)(C)C)C#Cc1ccc(cc1)C(F)(F)F)(F)F,434.8,0.95255102,-1.1401,-7.3005,1.19687,442.32678703354856,0.514142977,-1.2147,-7.0627,181.88148,-1.884,-8.448,1.00074,449.98436834188453,0.676842089,483,NaN,483,NaN,dichloromethane
OVSQVDMCBVZWGM-UHFFFAOYSA-N,OCC1OC(Oc2c(oc3c(c2=O)c(O)cc(c3)O)c2ccc(c(c2)O)O)C(C(C1O)O)O,OCC1OC(Oc2c(oc3c(c2=O)c(O)cc(c3)O)c2ccc(c(c2)O)O)C(C(C1O)O)O,303.8,0.536910859,-0.2427,-8.0817,2.87101,357.61234036776364,0.304846109,-1.5009,-8.4329,49.42754,-1.245,-8.941,1.9369,NaN,NaN,NaN,NaN,NaN,NaN,NaN