inchikey,smi_pre,smi_post,lambda_sTDA (nm),f1_sTDA,lumo_dft,homo_dft,dmom_dft (D),lambda_z (nm),f1_z,lumo_z,homo_z,dmom_z (D),lumo_mopac,homo_mopac,dmom_mopac (D),lambda_tddft (nm),f1_tddft,lambda_exp_max (nm),epsilon_exp_max ,lambda_exp_min (nm),epsilon_exp_min ,solvent
GTQXMOOHTNHNQW-UHFFFAOYSA-N,CCn1c2ccc(cc2c2c1cccc2)C=NNC(=S)N,CCn1c2ccc(cc2c2c1cccc2)C=NNC(=S)N,308.4,0.488098148,0.2536,-7.5422,8.23044,383.0219289635578,2.3674e-05,-0.7495,-8.0068,301.32085,-0.848,-8.294,8.63364,NaN,NaN,NaN,NaN,NaN,NaN,NaN
AGEBQARSCORRAQ-UHFFFAOYSA-N,CSc1c[nH]n(s1)N=Nc1ccc(c2c1cccn2)O,CSc1c[nH]n(s1)N=Nc1ccc(c2c1cccn2)O,359.4,0.174599855,-0.3545,-7.7726,3.34614,442.95890820115636,0.047152292,-1.0444,-7.9991,155.83892,-1.362,-8.307,4.00876,NaN,NaN,560,NaN,560,NaN,DMSO
OSRZLUAFJRNADE-UHFFFAOYSA-N,O=C(c1ccccc1)NC1=CC(=O)C(=O)c2c1cccc2,O=C(c1ccccc1)NC1=CC(=O)C(=O)c2c1cccc2,491.6,4.1264e-05,-1.3132,-9.0234,9.96400,503.7960113998524,0.000774757,-1.8408,-8.9783,132.65401,-1.515,-9.475,9.46718,NaN,NaN,278,NaN,278,NaN,ethanol
VCGSUQKUKYUFHD-UHFFFAOYSA-N,CCN(c1ccccc1C)c1cc(=O)[nH]c(n1)c1ccccc1,CCN(c1ccccc1C)c1cc(=O)[nH]c(n1)c1ccccc1,287.7,0.185634348,0.2276,-7.8886,4.79945,318.72544577250295,0.191477889,-0.4983,-8.1497,84.78431,-0.665,-8.675,4.94793,NaN,NaN,274.0,53703.17963702533,254.0,26915.348039269138,NaN
LLXACWXFWIPYNT-UHFFFAOYSA-N,COc1ccc(cc1)Cc1nnc2n1nc(s2)c1ccc2c(c1)cccc2,COc1ccc(cc1)Cc1nnc2n1nc(s2)c1ccc2c(c1)cccc2,301.9,0.122405205,-0.3535,-8.3032,6.17688,322.3718107267386,0.044747523,-0.8418,-8.1947,179.29117,-1.391,-8.917,6.26339,NaN,NaN,306.0,220000.0,236.0,170000.0,Methanol
PEXHCKVBQZPKMQ-UHFFFAOYSA-N,CCCCc1cc2nn(cc2c2n1c1ccc(cc1n2)Cl)c1ccccc1,Cc1cc2nn(cc2c2n1c1ccc(cc1n2)Cl)c1ccccc1,287.7,0.647460283,0.2091,-7.8916,4.06577,357.71551761541735,0.631121104,-0.8984,-7.8548,237.30182,-1.174,-8.637,4.36752,NaN,NaN,337.0,NaN,244.0,NaN,NaN
QIWCIWZSQFMNQJ-UHFFFAOYSA-N,Brc1ccc(cc1)c1nn(c2c1c1c(cn2)c(=O)[nH]n1c1ccccc1)c1ccccc1,Brc1ccc(cc1)c1nn(c2c1c1c(cn2)c(=O)[nH]n1c1ccccc1)c1ccccc1,285.4,0.500695637,0.1231,-8.1058,3.65502,333.0222895662199,0.190009298,-1.0136,-8.2453,359.02463,-1.139,-8.947,2.80039,NaN,NaN,370,NaN,370,NaN,DMSO
SUVOURPAENOABZ-UHFFFAOYSA-N,OCC(=O)CCc1ccc(cc1)Cl,OCC(=O)CCc1ccc(cc1)Cl,250.6,0.000361396,1.1091,-9.0616,3.48746,328.0005248822848,2.6813e-05,-0.1729,-9.2787,108.41250,-0.39,-9.744,1.54499,NaN,NaN,NaN,NaN,NaN,NaN,NaN
JBUVTLGTGISTIJ-UHFFFAOYSA-N,CCN(c1nc(c(s1)N=Nc1ccccc1)c1ccccc1)CC,CCN(c1nc(c(s1)N=Nc1ccccc1)c1ccccc1)CC,448.5,0.006408517,-0.405,-7.3182,3.55546,545.225146901951,0.004167198,-1.0834,-7.2804,64.51769,-1.091,-8.073,4.58079,NaN,NaN,471,28000,471,28000,NaN
OSGPWJINNVJVMS-UHFFFAOYSA-N,Oc1ccc(cc1)N=Nc1snc2c1cc(cc2)[N+](=O)[O-],Oc1ccc(cc1)N=Nc1snc2c1cc(cc2)[N+](=O)[O-],455.2,0.001968379,-1.697,-8.3165,4.58398,582.6325113040585,0.036831248,-2.9443,-8.4042,74.83414,-2.532,-9.189,5.29667,NaN,NaN,464,NaN,464,NaN,NaN
QIBMCSDHPLDOAI-UHFFFAOYSA-N,CCOC(=O)c1ccn2c(c1)cc(n2)c1ccc2c(c1)cccc2,CCOC(=O)c1ccn2c(c1)cc(n2)c1ccc2c(c1)cccc2,313.1,0.033717198,0.0193,-7.8898,2.11100,382.431210380949,0.254587034,-1.1408,-7.7512,111.93244,-1.172,-8.744,1.66381,NaN,NaN,298.0,NaN,264.0,NaN,Cyclohexane
CPXTYINUYIFQPP-UHFFFAOYSA-N,CCCCCCCn1c2ccc(cc2c2c1ccc(c2)C(=Cc1ccc(cc1)c1nnc(o1)CCCCCCCCC)C#N)C(=Cc1ccc(cc1)c1nnc(o1)CCCCCCCCC)C#N,Cn1c2ccc(cc2c2c1ccc(c2)C(=Cc1ccc(cc1)c1nnc(o1)C)C#N)C(=Cc1ccc(cc1)c1nnc(o1)C)C#N,321.1,1.750900026,-0.6845,-8.0496,8.20447,351.429133802448,0.986843996,-0.9973,-7.8719,4.19910,-1.361,-8.647,8.19082,340.13934599665157,1.6579690627,417.0,NaN,339.0,NaN,dichloromethane
OVIZVMCKRMIBAO-UHFFFAOYSA-N,Clc1ccc(cc1)N=Nc1c(N)nc2n(c1N)nc(c2N=Nc1nccs1)N,Clc1ccc(cc1)N=Nc1c(N)nc2n(c1N)nc(c2N=Nc1nccs1)N,432.5,0.000150414,-0.9017,-7.4765,2.54224,523.8031195838769,0.001165328,-1.7387,-7.5473,65.83041,-1.589,-8.452,3.24684,NaN,NaN,478,NaN,478,NaN,NaN
PEUUVVGQIVMSAW-UHFFFAOYSA-N,COc1cc(ccc1OC)C1OCC2C1COC2c1ccc(c(c1)OC)OC,COc1cc(ccc1OC)C1OCC2C1COC2c1ccc(c(c1)OC)OC,244.6,0.072738607,1.7803,-8.1282,2.28745,290.49718464269836,0.020811219,0.566,-8.1929,10.82256,0.155,-8.392,3.20258,NaN,NaN,NaN,NaN,NaN,NaN,NaN
NVGVZWUORYLPAL-UHFFFAOYSA-N,CCOCn1c(=O)[nH]c(=O)c(c1Cc1cc(C)cc(c1)C)C(C)C,CCOCn1c(=O)[nH]c(=O)c(c1Cc1cc(C)cc(c1)C)C(C)C,240.5,0.000197482,0.9538,-8.7645,4.17019,307.8822905525296,0.018648852,-0.6543,-8.6648,159.05170,-0.248,-9.319,4.5957,NaN,NaN,324,NaN,324,NaN,NaN
ANFRCGSFBIZVJL-UHFFFAOYSA-N,O=NN1C(C2CCCC(C1c1ccccc1C)C2=O)c1ccccc1C,O=NN1C(C2C(C1c1ccccc1C)C2=O)c1ccccc1C,397.0,0.005270382,0.4728,-8.8428,4.14492,518.9794826517525,0.001156667,-1.1273,-8.9093,91.02864,-0.183,-9.457,3.14275,NaN,NaN,448,NaN,448,NaN,KBr
GOMQIICHTZVRTN-UHFFFAOYSA-N,Cc1ccc(cc1)NC(C1=C(O)C(=O)c2c(C1=O)cccc2)c1ccc(cc1O)[N+](=O)[O-],Cc1ccc(cc1)NC(C1=C(O)C(=O)c2c(C1=O)cccc2)c1ccc(cc1O)[N+](=O)[O-],381.8,0.002359398,-1.78,-8.465,10.19374,445.02583777998444,0.000242203,-2.599,-8.338,234.60107,-2.27,-8.804,10.42699,NaN,NaN,444,3801.8939632056126,444,3801.8939632056126,NaN
JPXPFTYIZKVQGG-UHFFFAOYSA-N,CC(NC(=O)CNC(=O)c1ccccc1)CCc1ccccc1,CC(NC(=O)CNC(=O)c1ccccc1)CCc1ccccc1,241.4,0.02446482,0.6623,-8.8928,3.38573,295.0599676475575,0.007970557,-0.4915,-8.6564,71.17848,-0.486,-9.395,3.36996,NaN,NaN,NaN,NaN,NaN,NaN,NaN
PVNIIMVLHYAWGP-UHFFFAOYSA-N,OC(=O)c1cccnc1,OC(=O)c1cccnc1,264.4,0.003292876,0.194,-9.8874,0.40144,294.0801669959764,0.001881387,-0.921,-9.726,48.96094,-1.146,-10.72,1.10865,NaN,NaN,NaN,NaN,NaN,NaN,NaN
GWPGDZPXOZATKL-UHFFFAOYSA-N,Oc1ccc2c(c1)[nH]c1c2cccc1,Oc1ccc2c(c1)[nH]c1c2cccc1,276.6,0.056801037,1.0886,-7.6532,2.88854,318.8893991911103,0.024403731,0.0222,-7.7263,58.75590,-0.352,-8.544,2.48489,NaN,NaN,346.0,NaN,302.0,NaN,NaN
GPCGRXDPGRBIIC-UHFFFAOYSA-N,C=CCCCCCCCCCC(c1c2ccccc2cc2c1cccc2)O,C=C(c1c2ccccc2cc2c1cccc2)O,360.7,0.143694202,-0.2906,-7.601,2.02349,370.32317325419257,0.202232346,-0.7885,-7.3968,36.68183,-1.359,-8.576,2.49373,NaN,NaN,369.0,NaN,366.0,NaN,Acetonitrile
GANVKEMWPMXQIH-UHFFFAOYSA-N,COc1ccc(cc1)c1cn2c(n1)cc(cc2)C=Cc1cccs1,COc1ccc(cc1)c1cn2c(n1)cc(cc2)C=Cc1cccs1,343.1,1.090835526,-0.1492,-7.3067,2.24993,398.27882558786916,0.803423111,-0.8481,-7.2166,121.64807,-1.124,-8.372,2.14854,365.3794035577151,1.0594172602,392.0,34673.685045253165,365.0,13803.842646028837,Toluene
DMTQJDBSLYMJCN-UHFFFAOYSA-N,OCC(=O)CCc1ccccc1Br,OCC(=O)CCc1ccccc1Br,279.7,5.85e-06,0.9438,-9.1351,3.83709,333.8292902679151,2.9222e-05,0.0334,-9.2993,164.69916,-0.474,-9.747,1.74428,NaN,NaN,NaN,NaN,NaN,NaN,NaN
XCLBJTYTTUIYQL-UHFFFAOYSA-N,Oc1cc(O)cc(c1)c1coc2c(c1=O)c(O)cc(c2)O,Oc1cc(O)cc(c1)c1coc2c(c1=O)c(O)cc(c2)O,276.0,0.066597599,0.2891,-8.3499,3.82578,365.6272438970913,0.000973627,-1.1976,-8.6265,27.15180,-0.952,-9.202,1.95848,NaN,NaN,133,NaN,133,NaN,NaN
YERDPESYQNTYBS-UHFFFAOYSA-N,N#CC(=C1OC(C(=C1C#N)C=CC1=C(Cl)C(=CC=C2N(C)c3c(C2(C)C)cccc3)CC(C1)(c1ccccc1)c1ccccc1)(C)C)C#N,N#CC(=C1OC(C(=C1C#N)C=CC1=C(Cl)C(=CC=C2N(C)c3c(C2(C)C)cccc3)CC(C1)(c1ccccc1)c1ccccc1)(C)C)C#N,429.3,1.87726001,-1.7505,-7.4716,16.83268,402.15438989783866,1.04209693,-1.8806,-7.709,476.03993,-2.195,-8.304,13.85794,511.42264987517814,1.4506038635,839.0,NaN,799.0,NaN,DMF
WWAABJGNHFGXSJ-UHFFFAOYSA-N,Clc1cc(ccc1O)C1(OS(=O)(=O)c2c1cccc2)c1ccc(c(c1)Cl)O,Clc1cc(ccc1O)C1(OS(=O)(=O)c2c1cccc2)c1ccc(c(c1)Cl)O,246.3,0.030721709,0.4138,-8.8625,5.59624,289.4798001529387,0.043366221,-0.8669,-8.9205,168.45634,-0.996,-9.526,5.56477,NaN,NaN,575.0,NaN,436.0,NaN,NaN
JDACILDSJSVTRM-UHFFFAOYSA-N,Cc1ccc(cc1)c1n[nH]c(n1)c1ccccn1,Cc1ccc(cc1)c1n[nH]c(n1)c1ccccn1,258.4,0.702775329,0.3015,-8.1548,3.17717,316.36692627074166,0.391779529,-0.7139,-8.0049,81.21565,-1.017,-8.94,2.69713,NaN,NaN,540,NaN,540,NaN,NaN
RKLJTQSAOWHOBA-UHFFFAOYSA-N,Cc1ncccc1NCCCNc1cccnc1C,Cc1ncccc1NCCCNc1cccnc1C,264.4,0.124965189,1.1468,-7.6534,5.62009,299.4787401099122,0.202400501,0.2004,-8.0069,30.25101,-0.02,-8.485,4.15817,NaN,NaN,598,NaN,598,NaN,NaN
TTYIIGYIHFJVBM-UHFFFAOYSA-N,COC(=O)c1c(ccc2c1nc([nH]2)c1ccc(cc1O)O)C(=O)OC,COC(=O)c1c(ccc2c1nc([nH]2)c1ccc(cc1O)O)C(=O)OC,286.0,0.758124819,0.2169,-8.0113,3.64602,353.93719213675035,0.584475887,-1.0375,-8.17,52.28284,-1.271,-9.014,4.8132,NaN,NaN,445.0,NaN,346.0,NaN,NaN
FYRSAMASSIKKQX-UHFFFAOYSA-N,COc1ccc(cc1)N=Nc1ccc(cc1)OCC(=O)O,COc1ccc(cc1)N=Nc1ccc(cc1)OCC(=O)O,424.6,2.502e-06,-0.2253,-7.7971,1.55741,526.6958300998456,0.003132186,-1.2616,-8.0704,170.21493,-1.087,-8.686,3.97987,NaN,NaN,444.0,NaN,444.0,NaN,NaN
VRAMJOCVPVRMGU-UHFFFAOYSA-N,c1ccc(cc1)c1c(ccn2c1nc1c2cccc1)c1nnc(o1)c1ccc2c(c1)cccc2,c1ccc(cc1)c1c(ccn2c1nc1c2cccc1)c1nnc(o1)c1ccc2c(c1)cccc2,345.3,0.370656106,-0.545,-7.8562,1.28930,419.4323356072519,0.443194862,-1.2673,-7.5384,93.04570,-1.56,-8.715,2.0094,NaN,NaN,346,NaN,346,NaN,NaN
XSXDOOQXFFVKCI-UHFFFAOYSA-N,CCCCCCc1ccsc1c1sc(c2c1cccc2)c1oc2c(c1C)cccc2,Cc1ccsc1c1sc(c2c1cccc2)c1oc2c(c1C)cccc2,384.8,0.821103113,-0.2887,-7.0857,1.02969,499.93628389315995,0.522188431,-0.9689,-6.7033,137.27931,-1.386,-8.17,2.19668,421.3423265453662,0.6682565225,459,NaN,459,NaN,CH 2 Cl
IWOCUUITXVLXPN-UHFFFAOYSA-N,O=C(c1cccs1)CC(=O)c1cscc1,O=C(c1cccs1)CC(=O)c1cscc1,301.2,0.012226814,-0.2503,-9.2734,0.62756,365.73509854130873,0.003598975,-1.3363,-8.9093,55.52886,-1.093,-9.23,0.53388,NaN,NaN,370.0,239883.29190194898,267.0,95499.25860214369,CH 2 Cl
ZOJAINJCZSVZGW-UHFFFAOYSA-N,Nc1ccc2c(c1)ccc(=O)o2,Nc1ccc2c(c1)ccc(=O)o2,317.0,0.124495481,0.0361,-8.0028,6.48560,345.8415576164677,0.167574334,-1.0611,-8.3753,62.00696,-1.153,-8.605,6.03518,NaN,NaN,358,NaN,358,NaN,NaN
JKSYIKAAFVWVRO-UHFFFAOYSA-N,Nc1ccc(c(c1)c1nc2c([nH]1)cccc2)O,Nc1ccc(c(c1)c1nc2c([nH]1)cccc2)O,299.2,0.331643916,0.6328,-7.5631,4.52311,346.1312071622101,0.572502658,-0.4683,-7.5685,30.34853,-0.856,-8.223,4.65546,NaN,NaN,320.0,NaN,316.0,NaN,NaN
POYWBLNJTZNOJJ-UHFFFAOYSA-N,CCCCCCOc1c(c2ccccc2)c(C#N)c(c(c1C#N)c1ccccc1)OCCCCCC,COc1c(c2ccccc2)c(C#N)c(c(c1C#N)c1ccccc1)OC,285.3,0.380338263,-0.5888,-8.9401,0.00425,334.9113949365307,0.182916465,-1.0745,-8.5635,0.10609,-1.57,-9.585,0.01846,NaN,NaN,419.0,NaN,265.0,NaN,NaN
WOEUGMVVYGXFFW-IYXRBSQSSA-N,COC1[C@H](O)CCCC1OCc1ccccc1,COC1[C@H](O)C1OCc1ccccc1,233.9,0.002388333,1.3457,-8.8124,3.39718,269.64810440518414,0.003679875,0.4756,-9.0178,82.01235,-0.111,-9.543,3.80193,NaN,NaN,NaN,NaN,NaN,NaN,NaN
YGSAISAYXOBOJJ-UHFFFAOYSA-N,Cc1cc(C(c2ccccc2)c2ccccc2)c(c(c1)c1nc2c(n1C(C)C)cccc2)O,Cc1cc(C(c2ccccc2)c2ccccc2)c(c(c1)c1nc2c(n1C(C)C)cccc2)O,287.6,0.590393249,0.5502,-7.8297,4.10142,329.4823236925423,0.438150619,-0.3006,-7.7728,76.40004,-0.544,-8.633,4.65195,NaN,NaN,221,NaN,221,NaN,NaN
DEFBNTXXWHORJQ-UHFFFAOYSA-N,OCc1c(nc2n1cccn2)c1ccc(cc1)Cl,OCc1c(nc2n1cccn2)c1ccc(cc1)Cl,299.8,0.161506092,0.0982,-8.282,4.68959,370.54452601764393,0.301770532,-0.833,-7.8259,128.94065,-1.216,-9.253,5.38069,NaN,NaN,228,NaN,228,NaN,NaN
BKWOXTPXOFVZEN-UHFFFAOYSA-N,COC(=O)CCC(=NNc1ccccc1)C1=Nc2c(C1(C)C)c1ccccc1cc2,COC(=O)CCC(=NNc1ccccc1)C1=Nc2c(C1(C)C)c1ccccc1cc2,338.7,0.742560564,0.0903,-7.2532,2.48225,375.8235780706386,0.410814102,-0.7667,-7.4858,127.41690,-0.926,-8.243,1.95079,NaN,NaN,294.0,31680.0,218.0,16630.0,NaN
YTLPMPPHZDNPBZ-UHFFFAOYSA-N,O=Cc1ccc(s1)c1c2cc(ccc2c(c2c1ccc(c2)C(C)(C)C)N(c1cccc2c1cccc2)c1ccccc1)C(C)(C)C,O=Cc1ccc(s1)c1c2cc(ccc2c(c2c1ccc(c2)C(C)(C)C)N(c1cccc2c1cccc2)c1ccccc1)C(C)(C)C,405.3,0.416521275,-0.4361,-7.1602,4.19046,425.47768841971055,0.370544681,-0.9497,-7.0516,250.37583,-1.283,-7.982,3.83514,NaN,NaN,489,NaN,489,NaN,NaN
STYTVYKGFZYPSA-UHFFFAOYSA-N,N#CC(c1ccco1)C#N,N#CC(c1ccco1)C#N,204.6,0.257479188,1.208,-9.5995,5.15362,285.08668292826775,0.193407853,-0.2793,-8.7953,41.10696,-0.46,-10.145,3.98283,NaN,NaN,347.0,88990,302.0,332345,NaN
GDPSVJYHKDNCPK-UHFFFAOYSA-N,Cc1cc(c(s1)C)C1=C(CC(=Cc2ccc(cc2)N2CCOCC2)C1=O)c1cc(sc1C)C,Cc1cc(c(s1)C)C1=C(CC(=Cc2ccc(cc2)N2CCOCC2)C1=O)c1cc(sc1C)C,327.5,0.020855245,-0.1003,-7.5889,4.86920,385.1637104861872,0.011257385,-0.73,-7.5546,188.91939,-0.637,-8.449,3.63522,NaN,NaN,386,NaN,386,NaN,NaN
SFYDRFVODQQQME-UHFFFAOYSA-N,CC(NC(=O)C(=C)C)CNc1ccc2c(c1)nc(c(n2)N1CCOCC1)N1CCOCC1,CC(NC(=O)C(=C)C)CNc1ccc2c(c1)nc(c(n2)N1CCOCC1)N1CCOCC1,330.9,0.322071217,0.4119,-7.3077,3.24868,368.1241045294052,0.345011365,-0.8543,-7.896,37.96209,-0.739,-8.117,3.54779,NaN,NaN,508.0,NaN,395.0,NaN,NaN
NVQSKJVBFNKSDT-UHFFFAOYSA-N,O=C1c2ccccc2C(=O)c2c1c(F)c(c(c2F)F)F,O=C1c2ccccc2C(=O)c2c1c(F)c(c(c2F)F)F,354.8,6.622e-06,-1.4392,-9.8999,2.73261,419.85844363529856,2.73e-06,-2.5791,-10.0822,200.88237,-2.258,-10.648,3.17781,NaN,NaN,1724.1379310344828,NaN,329.0,NaN,NaN
AXJSRUDUOKNWKH-UHFFFAOYSA-N,Oc1cc2ncc(cc2cc1c1nc2c(s1)cccc2)c1ccc(cc1)[N+](=O)[O-],Oc1cc2ncc(cc2cc1c1nc2c(s1)cccc2)c1ccc(cc1)[N+](=O)[O-],333.3,0.393009673,-0.8466,-8.319,6.74703,422.7214401824196,0.002752812,-2.5508,-8.2453,108.44840,-1.856,-9.243,7.10126,NaN,NaN,331.0,NaN,325.0,NaN,Acetone
IVVHVBMDVAFYMT-UHFFFAOYSA-N,COc1ccccc1C(=NNc1ccccc1)N=Nc1ccc(cc1)Cl,COc1ccccc1C(=NNc1ccccc1)N=Nc1ccc(cc1)Cl,461.7,0.012901317,-0.8646,-7.5432,0.81259,536.4958823258488,0.010485751,-1.3152,-7.9082,254.05818,-1.216,-8.29,1.95515,NaN,NaN,355,NaN,355,NaN,NaN
DROWXYANPMOTTE-UHFFFAOYSA-N,CCCCCCn1c2ccc(cc2c2c1ccc(c2)c1ccc(s1)c1cccnc1C=C)c1ccc(s1)c1cccnc1C=C,Cn1c2ccc(cc2c2c1ccc(c2)c1ccc(s1)c1cccnc1C=C)c1ccc(s1)c1cccnc1C=C,309.9,1.310679156,0.3531,-7.3642,5.12831,346.9059832274865,0.738955592,-0.1576,-7.3712,74.14171,-0.76,-8.215,4.85037,320.9198970058483,1.2297861959,754.0,NaN,399.64,NaN,Benzyl alcohol
DNLYSBOIPOLYGH-UHFFFAOYSA-N,CCCCCCCCCCn1c(=CN=Nc2ccc(cc2)C=C(C#N)C#N)sc2c1cccc2,Cn1c(=CN=Nc2ccc(cc2)C=C(C#N)C#N)sc2c1cccc2,424.2,0.075755801,-1.3448,-7.4546,11.27463,500.74393540187265,0.02784846,-1.3685,-7.7994,43.07818,-1.68,-8.262,6.35668,NaN,NaN,484.0,NaN,477.0,NaN,DMF
ZPEUFVQCERGXMB-UHFFFAOYSA-N,[O-][N+](=O)c1ccc(cc1)c1nnc(s1)N=Nc1ccc(s1)c1cccs1,[O-][N+](=O)c1ccc(cc1)c1nnc(s1)N=Nc1ccc(s1)c1cccs1,474.9,0.001281015,-1.7106,-8.064,8.05390,546.908682865036,0.245069485,-2.6269,-7.758,25.71923,-2.503,-9.305,8.15807,NaN,NaN,565.0,NaN,495.0,NaN,DMSO
BHEPPELDFXDEPG-UHFFFAOYSA-N,C1CCc2c(C1)nc1c(c2)cc2c(n1)cccc2,C1CCc2c(C1)nc1c(c2)cc2c(n1)cccc2,339.1,0.089804918,-0.5127,-8.1153,3.96782,360.523984895329,0.384812283,-1.049,-7.9881,51.29504,-1.356,-8.95,4.63678,NaN,NaN,362,NaN,362,NaN,DMF
ZMVSJXTWKVGOAK-UHFFFAOYSA-N,Fc1ccc(cc1)C1(C=Cc2c(O1)ccc1c2ccc(c1)Br)c1ccc(cc1)F,Fc1ccc(cc1)C1(C=Cc2c(O1)ccc1c2ccc(c1)Br)c1ccc(cc1)F,325.9,0.20748705,0.0047,-7.9138,0.98939,348.172418998887,0.234134239,-0.793,-7.9049,373.88318,-1.176,-8.731,0.88083,NaN,NaN,455,NaN,455,NaN,NaN
XVJYBGZQMCNXHC-UHFFFAOYSA-N,OC(=O)c1nc2c(nc1C(=O)O)c1c3c2cccc3c(cc1)N(c1ccccc1)c1ccccc1,OC(=O)c1nc2c(nc1C(=O)O)c1c3c2cccc3c(cc1)N(c1ccccc1)c1ccccc1,390.3,0.45809842,-1.098,-7.7386,9.48414,416.75360808572657,0.380902247,-1.591,-7.7776,430.11470,-2.084,-8.586,10.46877,NaN,NaN,461,NaN,461,NaN,NaN
UEKOCFICENAOPN-UHFFFAOYSA-N,CC(=O)N1N=C(CC1c1c2ccccc2cc2c1cccc2)c1ccccc1,CC(=O)N1N=C(CC1c1c2ccccc2cc2c1cccc2)c1ccccc1,369.2,0.196788755,-0.1527,-7.4009,3.42756,377.19561425465065,0.236856494,-0.6676,-7.0848,52.86179,-1.076,-8.252,2.94679,NaN,NaN,458.0,NaN,412.0,NaN,NaN
GVVOAVOHACRAIB-UHFFFAOYSA-N,ClCCCn1c(Br)nc2c1c(=O)n(C)c(=O)n2C,ClCCCn1c(Br)nc2c1c(=O)n(C)c(=O)n2C,251.5,0.268376238,0.6172,-8.6073,2.65659,346.7119642212071,0.000818313,-1.2092,-8.9579,215.28130,-0.75,-9.115,1.36834,NaN,NaN,317.5,22908.676527677748,317.5,22908.676527677748,NaN
YTRWCKVAJDHUIQ-UHFFFAOYSA-N,CO[Si](CCCSC(=O)c1ccccc1Cl)(OC)OC,CO[Si](CCCSC(=O)c1ccccc1Cl)(OC)OC,260.6,0.0062772,0.697,-9.1007,1.86720,319.13564583141226,1.7703e-05,0.0356,-9.4235,21.86861,-0.548,-8.821,2.40902,NaN,NaN,274,116700.0,274,116700.0,chloroform
UJHYIFGXAWKNFE-UHFFFAOYSA-N,CSc1ccc(cc1)N=Nc1nc2c(s1)cccc2,CSc1ccc(cc1)N=Nc1nc2c(s1)cccc2,465.4,0.003253715,-1.016,-8.0019,2.42825,524.4678443549225,0.011125069,-1.4492,-8.2594,72.43426,-1.538,-8.595,2.12568,NaN,NaN,403.0,NaN,392.0,NaN,Methanol
BCHXAJAINJLQAL-UHFFFAOYSA-N,COc1ccc2c(c1)oc(=O)cc2CSc1ccccc1,COc1ccc2c(c1)oc(=O)cc2CSc1ccccc1,280.9,0.332460825,0.088,-8.3563,4.71550,331.77468130988404,0.340076568,-1.0121,-8.4625,20.62000,-0.987,-8.9,2.18914,NaN,NaN,323,NaN,323,NaN,NaN
VFPFQHQNJCMNBZ-UHFFFAOYSA-N,CCOC(=O)c1cc(O)c(c(c1)O)O,CCOC(=O)c1cc(O)c(c(c1)O)O,265.3,0.014760061,0.9199,-8.3767,4.68880,302.84366977406853,0.022255391,-0.8274,-9.1105,82.12014,-0.752,-9.266,1.16501,NaN,NaN,100,NaN,100,NaN,NaN
AJBFXTZQZOUPIB-UHFFFAOYSA-N,CCOC(=O)C1C(=O)C=C(CC1c1ccc(cc1)Cl)c1ccco1,CCOC(=O)C1C(=O)C=C(CC1c1ccc(cc1)Cl)c1ccco1,309.1,0.000931774,-0.179,-8.4691,3.28864,368.23343749778337,0.002544126,-1.2427,-8.3728,98.67364,-1.152,-9.478,3.92642,NaN,NaN,331.0,NaN,331.0,NaN,NaN
UWHBZLMSPZBZHY-UHFFFAOYSA-N,O=c1[nH]c(c2c1c([nH]c2=O)c1ccccc1)c1ccccc1,O=c1[nH]c(c2c1c([nH]c2=O)c1ccccc1)c1ccccc1,401.5,0.776299261,-1.0668,-7.4947,0.00091,425.04010423552853,0.662796197,-1.5798,-7.8419,0.07519,-1.548,-8.607,0.03085,NaN,NaN,507,NaN,507,NaN,dimethylsufoxide
UKCCDRNJJSCQSL-UHFFFAOYSA-N,Brc1sc(c2c1SC(=C1Sc3c(S1)c(sc3Br)Br)S2)Br,Brc1sc(c2c1SC(=C1Sc3c(S1)c(sc3Br)Br)S2)Br,357.3,0.001030393,0.21,-7.5545,0.27045,382.1954328159792,5.602e-06,-0.8805,-8.9735,2.46124,-1.406,-7.918,0.00212,NaN,NaN,300,NaN,300,NaN,NaN
NRZGWNWOJYFDNL-UHFFFAOYSA-N,Clc1ccc2c(c1)nccc2NCCNCCCOc1ccc2c(c1)c1c(cc2)OC2=C(C1c1ccc(cc1)C(F)(F)F)C(=O)CC(C2)(C)C,Clc1ccc2c(c1)nccc2NCCNCCCOc1ccc2c(c1)c1c(cc2)OC2=C(C1c1ccc(cc1)C(F)(F)F)C(=O)CC(C2)(C)C,293.6,0.010879104,0.0916,-8.0262,3.02958,352.0278205721285,0.000191703,-0.8964,-8.0517,212.35244,-0.911,-8.592,4.52394,NaN,NaN,329,10000.0,329,10000.0,methanol
MCGLGJVFMQJBGX-UHFFFAOYSA-N,c1ccc2=NC3=CC=CC4=NC=NC34N=c2c1,c1ccc2=NC3=CC=CC4=NC=NC34N=c2c1,486.4,0.130134711,-1.6085,-8.2834,2.92138,485.2610505107775,0.14876851,-1.7614,-7.8883,41.81455,-2.014,-9.346,3.57561,NaN,NaN,262,NaN,262,NaN,NaN
CNLDTBPWRICBRK-UHFFFAOYSA-N,COc1cc2ccccc2cc1C=Cc1cc2ccccc2c2c1OC(C=C2)(c1ccccc1)c1ccccc1,COc1cc2ccccc2cc1C=Cc1cc2ccccc2c2c1OC(C=C2)(c1ccccc1)c1ccccc1,318.9,0.243451939,0.3445,-7.5102,0.97598,349.0546126281072,0.227099756,-0.3124,-7.2987,49.82011,-0.829,-8.381,0.83759,NaN,NaN,450.0,NaN,430.0,NaN,NaN
IXFMWOQSHGTUJD-UHFFFAOYSA-N,Cc1cc(c(s1)C)C1=C(CC(C1=O)N1CCOCC1)c1cc(sc1C)C,Cc1cc(c(s1)C)C1=C(CC(C1=O)N1CCOCC1)c1cc(sc1C)C,352.2,0.006865101,0.2181,-7.9041,4.51051,374.46148718062113,0.016199653,-0.5776,-7.6876,93.69788,-0.619,-8.459,4.04116,NaN,NaN,318.0,NaN,245.0,NaN,NaN
AYJQNJMQMWHZRR-UHFFFAOYSA-N,Cc1nn(c(c1I)C)Cn1nc(c(c1C)I)C,Cc1nn(c(c1I)C)Cn1nc(c(c1C)I)C,257.2,0.006403013,1.4876,-8.5015,1.80705,NaN,NaN,NaN,Nan,NaN,-0.211,-8.507,1.81836,NaN,NaN,204,6559,204,6559,NaN
XXBDPJNRCVJJNI-UHFFFAOYSA-N,Oc1ccccc1N=Cc1cc(cc(c1O)C(C)(C)C)C(C)(C)C,Oc1ccccc1N=Cc1cc(cc(c1O)C(C)(C)C)C(C)(C)C,318.5,0.587004003,-0.0811,-7.9786,2.98736,352.127800072433,0.385158367,-0.7299,-7.9601,170.75363,-0.872,-8.605,3.07485,NaN,NaN,344.0,NaN,280.0,NaN,NaN
IMNSQXGUMKOOLE-UHFFFAOYSA-N,c1cc2OCCc2c(c1)c1ccc(c2c1cc[nH]2)c1cccc2c1CCO2,c1cc2OCCc2c(c1)c1ccc(c2c1cc[nH]2)c1cccc2c1CCO2,271.7,0.498801472,0.8962,-7.7694,2.92151,311.9099330956067,0.015859505,0.1641,-7.7793,25.37255,-0.288,-8.581,2.46656,NaN,NaN,321.0,NaN,306.0,NaN,NaN
QPCBLHOUXSSFLB-UHFFFAOYSA-N,CCCCCCCCC1(CCCCCCCC)c2cc3nc([nH]c3cc2c2c1cc1nc([nH]c1c2)c1ccccc1F)c1ccccc1F,C1(C)c2cc3nc([nH]c3cc2c2c1cc1nc([nH]c1c2)c1ccccc1F)c1ccccc1F,329.6,1.983769235,-0.0014,-7.2068,3.62752,384.0898339699618,1.235159542,-0.519,-6.9267,117.50968,-1.04,-8.367,4.85385,336.21920221618245,1.8373776336,385.0,NaN,370.0,NaN,NaN
JPOSOVAKLAYVTI-UHFFFAOYSA-N,c1ccc(nc1)c1nc2c(o1)c1cccnc1c1c2cccn1,c1ccc(nc1)c1nc2c(o1)c1cccnc1c1c2cccn1,301.3,0.423950924,-0.1564,-8.114,5.11572,402.02398964171095,0.492023902,-1.0273,-7.4977,15.51423,-1.435,-8.939,4.96455,NaN,NaN,290,52160,290,52160,NaN
PEBKZJXWQXUMCR-JBOXVKLSSA-N,O=C(Cc1cc(=O)oc2c1c1ccccc1cc2)NCc1nnn(c1)C([C@H]1O[C@H]([C@@H]([C@@H]1O)O)n1ccc(=O)[nH]c1=O)O,O=C(Cc1cc(=O)oc2c1c1ccccc1cc2)NCc1nnn(c1)C([C@H]1O[C@H]([C@@H]([C@@H]1O)O)n1ccc(=O)[nH]c1=O)O,316.6,0.319734004,-0.8569,-8.7959,10.20880,373.33393076032417,0.342341961,-1.695,-8.5889,326.81921,-1.54,-9.286,4.28595,NaN,NaN,350.0,NaN,319.0,NaN,NaN
KITXWTVKCCHTGF-UHFFFAOYSA-N,c1ccc(cc1)c1c(ccn2c1nc1c2cccc1)c1nnc(o1)c1ccccc1,c1ccc(cc1)c1c(ccn2c1nc1c2cccc1)c1nnc(o1)c1ccccc1,343.9,0.385279062,-0.4927,-7.8656,1.05272,410.9519337272246,0.46459229,-1.2194,-7.5675,68.55510,-1.509,-8.709,2.48,NaN,NaN,342,NaN,342,NaN,NaN