inchikey,smi_pre,smi_post,lambda_sTDA (nm),f1_sTDA,lumo_dft,homo_dft,dmom_dft (D),lambda_z (nm),f1_z,lumo_z,homo_z,dmom_z (D),lumo_mopac,homo_mopac,dmom_mopac (D),lambda_tddft (nm),f1_tddft,lambda_exp_max (nm),epsilon_exp_max ,lambda_exp_min (nm),epsilon_exp_min ,solvent
UKASXDQLKATYSS-UHFFFAOYSA-N,COc1ccc2c(c1)sc(n2)N=Nc1c(N)nc2n(c1N)nc(c2N=Nc1sc2c(n1)ccc(c2)OC)N,COc1ccc2c(c1)sc(n2)N=Nc1c(N)nc2n(c1N)nc(c2N=Nc1sc2c(n1)ccc(c2)OC)N,439.6,0.004180323,-1.1018,-7.2715,4.89910,534.1843964045827,0.031170277,-2.078,-7.4228,48.63975,-1.746,-8.288,6.10442,NaN,NaN,542,NaN,542,NaN,NaN
QEEKMVKAMUUPSD-UHFFFAOYSA-N,CCN(c1ccc(cc1)C1(C=Cc2c(O1)ccc1c2cccc1)c1ccc(cc1)N(CC)CC)CC,CCN(c1ccc(cc1)C1(C=Cc2c(O1)ccc1c2cccc1)c1ccc(cc1)N(CC)CC)CC,322.7,0.240802215,0.6447,-7.1357,3.36846,353.63433658158493,0.255902276,-0.2345,-7.2494,83.60184,-0.471,-7.827,3.52595,NaN,NaN,580,NaN,580,NaN,NaN
JMSVCTWVEWCHDZ-UHFFFAOYSA-N,COc1cc(cc(c1O)OC)C(=O)O,COc1cc(cc(c1O)OC)C(=O)O,261.1,0.045897662,0.7978,-8.3854,4.60226,305.07922835999915,0.025192216,-0.8272,-9.0364,37.45195,-0.672,-8.974,2.70322,NaN,NaN,278,NaN,278,NaN,NaN
LQYOSLLDJFCGFG-UHFFFAOYSA-N,Cc1ccc2c(c1)C(C)(C)C1(N2C)C=Cc2c(O1)c(cc1c2cccc1)c1nc(c(o1)c1ccccc1)c1ccccc1,Cc1ccc2c(c1)C(C)(C)C1(N2C)C=Cc2c(O1)c(cc1c2cccc1)c1nc(c(o1)c1ccccc1)c1ccccc1,329.5,0.192989948,0.0024,-7.4885,1.93424,387.5717361847567,0.38618317,-0.71,-7.1664,77.00133,-1.116,-8.192,1.57083,NaN,NaN,309,NaN,309,NaN,Toluene
HKQITUZDJJEVRI-MHZLTWQESA-N,COC(=O)[C@@H](NC(=CC(=C1c2ccccc2N(C1=O)C)c1ccccc1)c1ccccc1)CC(C)C,COC(=O)[C@@H](NC(=CC(=C1c2ccccc2N(C1=O)C)c1ccccc1)c1ccccc1)CC(C)C,399.1,0.451855954,-0.1942,-7.1291,1.93808,442.8007085910845,0.18192393,-0.5571,-7.4059,79.97314,-0.536,-8.143,2.49835,NaN,NaN,443,35400,443,35400,CH2Cl2
MATIORPPVVJZDM-UHFFFAOYSA-N,O=C(c1cccnc1)NCCC[Si]12OCCN(CCO1)CCO2,O=C(c1cccnc1)NCCC[Si]12OCCN(CCO1)CCO2,263.7,0.008033557,0.9536,-8.9874,11.34800,297.82416143527183,0.016287984,-0.1417,-9.1042,46.44987,-0.506,-8.707,8.27953,NaN,NaN,246,NaN,246,NaN,NaN
GDTKPWKJKWXFSE-UHFFFAOYSA-N,C=CCN1c2ccccc2C(C21C=Cc1c(O2)ccc2c1cccn2)(C)C,C=CCN1c2ccccc2C(C21C=Cc1c(O2)ccc2c1cccn2)(C)C,326.0,0.177403401,0.0863,-7.7436,2.60989,354.74734879972436,0.17508555,-0.6269,-7.6809,69.76436,-1.03,-8.406,2.13451,NaN,NaN,290,NaN,290,NaN,NaN
SMYHFDLFOKKDOO-UHFFFAOYSA-N,CCC(c1ccccc1Br)O,CCC(c1ccccc1Br)O,237.8,0.003604419,1.2331,-8.9712,2.73785,272.8525493078866,0.000238772,0.2502,-9.1696,184.37400,-0.329,-9.636,1.66008,NaN,NaN,NaN,NaN,NaN,NaN,NaN
GSDSWSVVBLHKDQ-JTQLQIEISA-N,CN1CCN(CC1)c1c(F)cc2c3c1OC[C@@H](n3cc(c2=O)C(=O)O)C,CN1CCN(CC1)c1c(F)cc2c3c1OC[C@@H](n3cc(c2=O)C(=O)O)C,292.0,0.049743582,0.0239,-8.3045,10.06044,345.6487270853182,0.000155857,-1.3157,-8.8655,221.95437,-1.083,-8.937,10.67597,NaN,NaN,NaN,NaN,NaN,NaN,NaN
DUEPRVBVGDRKAG-UHFFFAOYSA-N,CNC(=O)Oc1cccc2c1OC(C2)(C)C,CNC(=O)Oc1cccc2c1OC(C2)(C)C,251.0,0.056009383,1.8502,-8.0653,1.96795,284.95563871639547,0.009450286,0.567,-8.4045,78.54337,0.145,-8.647,2.83185,NaN,NaN,NaN,NaN,NaN,NaN,NaN
XENCRAYFZBUFCS-UHFFFAOYSA-N,c1ccc(cc1)N(c1ccccc1)c1ccc(cc1)c1nnc(o1)c1ccn2c(c1c1ccccc1)nc1c2cccc1,c1ccc(cc1)N(c1ccccc1)c1ccc(cc1)c1nnc(o1)c1ccn2c(c1c1ccccc1)nc1c2cccc1,349.9,0.715885571,-0.4141,-7.3667,2.13506,429.01106714707146,0.601613374,-1.2295,-7.3386,151.74407,-1.448,-8.206,2.90728,NaN,NaN,395,NaN,395,NaN,NaN
VZKPYPHNUGUUPH-UHFFFAOYSA-N,N#CC(=Cc1ccc(o1)c1ccc2c(c1)c1cc(ccc1n2CCCC(C)C)c1ccc(cc1)N(c1ccccc1)c1ccccc1)C(=O)O,N#CC(=Cc1ccc(o1)c1ccc2c(c1)c1cc(ccc1n2C(C)C)c1ccc(cc1)N(c1ccccc1)c1ccccc1)C(=O)O,357.7,1.686620732,-0.7799,-7.1292,4.09795,482.4287875700532,0.736480006,-1.6174,-7.256,494.65617,-1.662,-7.969,3.93552,393.3009548573767,1.2410197079,468,NaN,468,NaN,NaN
UYCLVTGTZIIJPT-UHFFFAOYSA-N,[O-][N+](=O)c1ccc(c2c1nsn2)C#Cc1ccc(cc1)n1c2ccccc2c2c1cccc2,[O-][N+](=O)c1ccc(c2c1nsn2)C#Cc1ccc(cc1)n1c2ccccc2c2c1cccc2,369.0,1.205926979,-1.7698,-7.8437,5.00280,NaN,NaN,NaN,Nan,NaN,-2.41,-8.413,5.54238,402.07612209508187,1.0079138232,438.0,NaN,318.0,NaN,NaN
CTXWDKYDCBHCAZ-UHFFFAOYSA-N,CCCCCCCCC1(CCCCCCCC)c2cc3nc(c4ccccc4)c(nc3cc2c2c1cccc2)c1ccccc1,C1(C)c2cc3nc(c4ccccc4)c(nc3cc2c2c1cccc2)c1ccccc1,323.0,0.098282787,-0.3291,-7.9875,0.62814,380.7868501397533,0.799541261,-0.8569,-7.5789,25.79464,-1.137,-8.909,0.55201,NaN,NaN,385,NaN,385,NaN,DMSO
YIWFXZNIBQBFHR-LURJTMIESA-N,NCC(=O)N[C@H](C(=O)O)Cc1c[nH]cn1,NCC(=O)N[C@H](C(=O)O)Cc1c[nH]cn1,215.7,0.00363213,2.2624,-8.8542,6.37083,292.27769543965974,0.002100829,0.15,-8.3615,52.07783,0.083,-9.634,6.3038,NaN,NaN,600.0,NaN,599.0,NaN,NaN
NCTXRQVAZBODIP-UHFFFAOYSA-N,OCc1ccc(cc1)Oc1ccc(c(c1)C#N)C#N,OCc1ccc(cc1)Oc1ccc(c(c1)C#N)C#N,265.3,0.129015191,-0.4499,-9.4907,7.00993,297.324216799769,0.074389695,-1.0621,-8.8285,67.59984,-1.481,-9.825,7.39639,NaN,NaN,709,NaN,709,NaN,NaN
UQNSTGILJBPJQN-UHFFFAOYSA-N,[O-][n+]1ccc(cc1)C(=O)c1ccccc1,[O-][n+]1ccc(cc1)C(=O)c1ccccc1,308.6,0.002686776,-0.5438,-8.5949,3.96307,375.14129623450424,0.001488056,-1.7126,-9.1063,81.04328,-1.124,-9.418,3.46522,NaN,NaN,292,NaN,292,NaN,NaN
VOQKDROONLRGFD-UHFFFAOYSA-N,Nc1nc2c(N=Nc3ccccc3)c(nn2c(c1N=Nc1nccs1)N)N,Nc1nc2c(N=Nc3ccccc3)c(nn2c(c1N=Nc1nccs1)N)N,392.7,0.006441621,-0.8796,-7.4746,3.35819,538.8274593894118,0.001007036,-1.9003,-7.4872,270.88355,-1.773,-8.437,4.0476,NaN,NaN,480,NaN,480,NaN,NaN
TZCDZBBXBFZZDY-UHFFFAOYSA-N,CCCCCCOc1c(OCCCCCC)c(c2ccc(o2)C=C(C(=O)O)C#N)c2c(c1c1ccc(o1)c1ccc(cc1)N(c1ccccc1)c1ccccc1)nc(c(n2)C)C,COc1c(OC)c(c2ccc(o2)C=C(C(=O)O)C#N)c2c(c1c1ccc(o1)c1ccc(cc1)N(c1ccccc1)c1ccccc1)nc(c(n2)C)C,398.1,1.658928014,-0.9035,-6.9068,2.97506,497.32931570599146,0.841247441,-1.5926,-6.8786,520.58965,-1.665,-7.913,3.45195,428.93683794928023,1.3997485653,484.0,38200,438.0,38200,NaN
FBSKJMQYURKNSU-QJDQKFITSA-N,OC[C@H]1O[C@@H](OCCc2ccc(c(c2)O)O)[C@@H]([C@H]([C@@H]1OC(=O)C=Cc1ccc(c(c1)O)O)O[C@@H]1O[C@@H](C)[C@@H]([C@H]([C@H]1O)O)O)O,OC[C@H]1O[C@@H](OCCc2ccc(c(c2)O)O)[C@@H]([C@H]([C@@H]1OC(=O)C=Cc1ccc(c(c1)O)O)O[C@@H]1O[C@@H](C)[C@@H]([C@H]([C@H]1O)O)O)O,275.3,0.336256274,0.3522,-8.0675,7.32631,301.371410805794,0.305492573,-0.7249,-8.4491,103.92584,-0.923,-8.879,3.63155,NaN,NaN,NaN,NaN,NaN,NaN,NaN
RFBNYUFRAWICFZ-UHFFFAOYSA-N,COc1cc(cc(c1OC)OC)c1cc(nc(c1)c1ccccn1)c1cc(OC)c(c(c1)OC)OC,COc1cc(cc(c1OC)OC)c1cc(nc(c1)c1ccccn1)c1cc(OC)c(c(c1)OC)OC,272.0,0.355255766,0.3146,-8.1642,0.88449,317.4198627893079,0.448497649,-0.3381,-7.9694,33.20409,-0.795,-8.821,2.23999,NaN,NaN,283,NaN,283,NaN,NaN
CXQWRCVTCMQVQX-LSDHHAIUSA-N,Oc1cc2O[C@H](c3ccc(c(c3)O)O)[C@H](C(=O)c2c(c1)O)O,Oc1cc2O[C@H](c3ccc(c(c3)O)O)[C@H](C(=O)c2c(c1)O)O,282.9,0.080972204,0.2308,-8.2488,4.31955,353.0301776922086,7.8683e-05,-1.0619,-8.5774,34.52850,-0.952,-9.014,1.55562,NaN,NaN,330.0,NaN,292.0,NaN,NaN
UPHRHDIPADDOBZ-UHFFFAOYSA-N,O=C1c2ccccc2c2c3c1cccc3c(cc2)N1CCOCC1,O=C1c2ccccc2c2c3c1cccc3c(cc2)N1CCOCC1,362.1,0.390164779,-0.6925,-7.7593,3.64134,379.15657004741183,0.433947511,-1.3113,-7.8468,33.38048,-1.418,-8.81,3.34435,NaN,NaN,434,NaN,434,NaN,C6H6
LBHYEJJKDHNXRS-UHFFFAOYSA-N,Nc1nc2c(N=Nc3ccc(cc3)[N+](=O)[O-])c(nn2c(c1N=Nc1ccccc1)N)N,Nc1nc2c(N=Nc3ccc(cc3)[N+](=O)[O-])c(nn2c(c1N=Nc1ccccc1)N)N,401.3,0.000411319,-0.9846,-7.721,11.01597,512.9673082561178,0.060258988,-2.2159,-7.7934,243.15939,-1.628,-8.757,12.39868,NaN,NaN,491,NaN,491,NaN,NaN
NHJNFJLNTTYDBO-UHFFFAOYSA-N,CCCCCc1ccc(cc1)C(=C(C#N)C#N)C(=c1c(F)c(F)c(=C(C#N)C#N)c(c1F)F)c1ccc(cc1)N(CCCC)CCCC,Cc1ccc(cc1)C(=C(C#N)C#N)C(=c1c(F)c(F)c(=C(C#N)C#N)c(c1F)F)c1ccc(cc1)N(C)C,444.3,1.756164602,-2.4004,-7.8656,15.65971,444.54714379886576,0.928013512,-2.6814,-8.3697,389.23837,-2.869,-8.774,13.15348,523.5376784445548,1.2213080016,863.0,NaN,856.0,NaN,NaN
UZWXNKYRBMHNFH-UHFFFAOYSA-N,OC(=O)c1ccc(cc1)N=Cc1cc(ccc1O)N=Nc1ccccc1,OC(=O)c1ccc(cc1)N=Cc1cc(ccc1O)N=Nc1ccccc1,429.1,0.000120395,-0.5621,-8.1712,1.23464,520.5046112741547,0.012565341,-1.3418,-8.4142,181.80816,-1.249,-9.064,3.19224,NaN,NaN,333,NaN,333,NaN,NaN
QILCWWQLHCCQHN-UHFFFAOYSA-N,Cc1sc(nc1C1=C(c2sccc2C)C(C(C1(F)F)(F)F)(F)F)c1ccccc1,Cc1sc(nc1C1=C(c2sccc2C)C(C(C1(F)F)(F)F)(F)F)c1ccccc1,282.2,0.542812245,-0.0866,-8.3898,5.90895,330.2722386934035,0.394534554,-0.7127,-8.1839,341.07637,-1.207,-9.07,5.56786,NaN,NaN,494.0,22300,302.0,10000,NaN
LWJYPBXSXJCMQI-UHFFFAOYSA-N,O=C(C(C(=O)C)N=Nc1ccccc1)Nc1ccc(cc1)NC(=O)C(C(=O)C)N=Nc1ccccc1,O=C(C(C(=O)C)N=Nc1ccccc1)Nc1ccc(cc1)NC(=O)C(C(=O)C)N=Nc1ccccc1,395.3,0.000812465,-0.6073,-8.1146,5.72499,510.0131567482668,0.006565993,-1.4907,-8.2815,91.10920,-1.281,-8.571,5.26261,NaN,NaN,395.0,NaN,389.0,NaN,NaN
PXIMQVIHTBUXRY-UHFFFAOYSA-N,c1ccc2c(c1)c1ccc3c(c1C2)oc1c3cccc1,c1ccc2c(c1)c1ccc3c(c1C2)oc1c3cccc1,287.9,0.599922815,0.4245,-7.7869,0.14811,332.9328636023192,0.730520128,-0.3406,-7.5664,32.70399,-0.858,-8.666,0.20821,NaN,NaN,338.0,NaN,329.0,NaN,NaN
AAVULYVAOWXFRH-UHFFFAOYSA-N,COc1ccc2c(c1)C(C)(C)C1(N2C)C=Cc2c(O1)ccc1c2cccn1,COc1ccc2c(c1)C(C)(C)C1(N2C)C=Cc2c(O1)ccc1c2cccn1,326.4,0.178722503,0.1272,-7.2624,2.75077,354.74734879972436,0.176347486,-0.6262,-7.679,38.36114,-0.975,-8.034,2.00863,NaN,NaN,302,NaN,302,NaN,NaN
XWXJBVYPOFOVMR-UHFFFAOYSA-N,COc1ccc(cc1)C1(C)c2cc(Br)ccc2c2c1cc(Br)cc2,COc1ccc(cc1)C1(C)c2cc(Br)ccc2c2c1cc(Br)cc2,277.2,0.44461743,0.3635,-8.0749,1.38151,315.9638083728432,0.275985288,-0.5046,-8.0513,136.20114,-0.945,-8.887,1.3889,NaN,NaN,334.0,NaN,318.0,NaN,NaN
QIMZODXEZSSCJW-UHFFFAOYSA-N,c1ccc2c(c1)c1ccccc1n2c1cccc(c1)c1cncc(n1)n1c2ccccc2c2c1cccc2,c1ccc2c(c1)c1ccccc1n2c1cccc(c1)c1cncc(n1)n1c2ccccc2c2c1cccc2,303.2,0.173716725,-0.0214,-7.7328,1.18229,360.0005760903126,0.19869028,-0.5732,-7.7261,70.91098,-1.171,-8.286,0.96079,NaN,NaN,288,NaN,288,NaN,NaN
CUBNMOWWLDSPGF-UHFFFAOYSA-N,N#Cc1ccc(cc1)N=Nc1ccc(cc1N)N,N#Cc1ccc(cc1)N=Nc1ccc(cc1N)N,408.8,0.000593979,-0.5754,-7.5997,10.13849,524.9119322840968,0.012125699,-1.1968,-7.8517,46.61246,-1.055,-8.493,9.044,NaN,NaN,262,NaN,262,NaN,NMP
UHDGCWIWMRVCDJ-UHFFFAOYSA-N,OCC1OC(C(C1O)O)n1ccc(nc1=O)N,OCC1OC(C(C1O)O)n1ccc(nc1=O)N,243.2,0.131539199,1.176,-8.7144,7.88690,301.22497183066974,0.161226049,-0.6653,-9.1262,55.53989,-0.516,-9.634,4.05734,NaN,NaN,273.0,9199,271.0,8816,NaN
FCSHMCFRCYZTRQ-UHFFFAOYSA-N,S=C(Nc1ccccc1)Nc1ccccc1,S=C(Nc1ccccc1)Nc1ccccc1,293.0,0.024772794,0.6601,-8.0022,5.07265,397.0035171485868,0.000138168,-0.2982,-8.1899,150.14553,-0.683,-8.374,5.97438,NaN,NaN,NaN,NaN,NaN,NaN,NaN
WZXZBNOJSHJZAB-UHFFFAOYSA-N,COC(=O)n1ccc2c1c1ccccc1SC2,COC(=O)n1ccc2c1c1ccccc1SC2,301.1,0.175024275,0.6042,-7.8269,1.26745,356.17408332520444,0.263647245,-0.4594,-7.6303,42.56601,-0.702,-8.303,1.81683,NaN,NaN,NaN,NaN,NaN,NaN,NaN
MVXZYGFGMYXWBM-UHFFFAOYSA-N,CC(=O)OC(=CCc1ccccc1)c1ccccc1,CC(=O)OC(=CCc1ccccc1)c1ccccc1,243.5,0.238516266,1.019,-8.5089,1.75426,279.8108743071624,0.000274108,0.1097,-8.148,41.06675,-0.178,-9.212,2.13388,NaN,NaN,NaN,NaN,NaN,NaN,NaN
SJFADCSTOBRZML-UHFFFAOYSA-N,CN(c1ccc2c(c1)Oc1c(C32OC(=O)c2c3cccc2)ccc2c1ccc(c2)OCc1ccccc1)C,CN(c1ccc2c(c1)Oc1c(C32OC(=O)c2c3cccc2)ccc2c1ccc(c2)OCc1ccccc1)C,291.7,0.104504174,0.5271,-7.6796,7.11628,330.4482899933467,0.032128331,-0.6979,-7.7827,122.61782,-0.637,-8.428,6.86328,NaN,NaN,545.0,2160.0,520.0,1880.0,NaN
QXVWPUIDDQQALE-UHFFFAOYSA-N,Cc1ccc(cc1)C1C2=C(Oc3c1c1cc(OCCCNCCNc4ccnc5c4ccc(c5)Cl)ccc1cc3)CC(CC2=O)(C)C,Cc1ccc(cc1)C1C2=C(Oc3c1c1cc(OCCCNCCNc4ccnc5c4ccc(c5)Cl)ccc1cc3)CC(CC2=O)(C)C,299.9,0.012880803,0.5443,-7.565,5.75780,350.63404526443344,0.000371992,-0.542,-7.6129,165.31814,-0.489,-8.293,6.06337,NaN,NaN,330,11000.0,330,11000.0,methanol
YASYMBCPJHQMOI-UHFFFAOYSA-N,N#Cc1cnn2c1nc(C)c1c2N(CC1)c1ccc(cc1)C,N#Cc1cnn2c1nc(C)c1c2N(CC1)c1ccc(cc1)C,287.4,0.442047373,0.632,-7.8205,9.87345,380.0864451425618,0.186185039,-0.6574,-7.805,122.25690,-0.862,-8.608,10.56766,NaN,NaN,364,NaN,364,NaN,NaN
MQEMTMGYPYUQLH-IRLDBZIGSA-N,CC(C[C@@H](C(=O)N[C@H]1Cc2cn(c3c2cccc3)CCCCCCNC1=O)CS(=N)(=N)C)C,CC(C[C@@H](C(=O)N[C@H]1Cc2cn(c3c2cccc3)CNC1=O)CS(=N)(=N)C)C,279.4,0.134428437,1.2812,-7.7392,9.74440,382.431210380949,0.001234209,-0.5786,-7.0299,100.76090,-0.283,-8.785,7.68473,NaN,NaN,430,NaN,430,NaN,NaN
NXMXWLSHAFUPCA-UHFFFAOYSA-N,c1ccc(cc1)C1N=C(c2ccco2)C(=NC1c1ccccc1)c1ccco1,c1ccc(cc1)C1N=C(c2ccco2)C(=NC1c1ccccc1)c1ccco1,353.3,0.007129749,-0.1462,-8.4079,1.68858,379.2725555384021,0.008420999,-0.8399,-8.0336,77.38986,-0.872,-9.217,0.51129,NaN,NaN,342.0,NaN,278.0,NaN,NaN
REDWVYXRPZDHBC-UHFFFAOYSA-N,CCCCCCCCC1(CCCCCCCC)c2cc(ccc2c2c1cc(cc2)c1ccc2c(c1)C(CCCCCCCC)(CCCCCCCC)c1c2cccc1)c1ccc2c(c1)C(CCCCCCCC)(CCCCCCCC)c1c2ccc(c1)c1ccc(cc1)C=C,C1(C)c2cc(ccc2c2c1cc(cc2)c1ccc2c(c1)C(C)(C)c1c2cccc1)c1ccc2c(c1)C(C)(C)c1c2ccc(c1)c1ccc(cc1)C=C,322.5,3.027050905,0.0545,-7.3674,0.79415,342.78185901438667,2.077452044,-0.2606,-7.2788,51.66466,-0.743,-8.444,0.76742,324.09084329056736,3.189711554,366,NaN,366,NaN,NaN
ZOAVOXZYKZYCIP-UHFFFAOYSA-N,COc1ccc(cc1)CNc1ncnc2c1nc([nH]2)C=Cc1ccc(cc1)C(F)(F)F,COc1ccc(cc1)CNc1ncnc2c1nc([nH]2)C=Cc1ccc(cc1)C(F)(F)F,323.1,1.241524519,-0.4666,-7.764,2.14903,364.44502764698314,0.672205304,-0.8779,-7.7201,339.30035,-1.312,-8.645,3.68106,338.1725254595626,0.9884595887,360.0,NaN,346.0,NaN,DMSO
ZPDVRWNOCOREGF-UHFFFAOYSA-N,O=C(C(=O)O)Nc1sc2c(c1C(=O)O)CCSC2,O=C(C(=O)O)Nc1sc2c(c1C(=O)O)CCSC2,281.6,0.004857525,-0.0023,-8.8973,3.83975,379.0406554738724,0.103894262,-1.6875,-8.53,74.39007,-1.537,-8.739,2.61618,NaN,NaN,NaN,NaN,NaN,NaN,NaN
JRTFGDMVQLLYRC-UHFFFAOYSA-N,Clc1ccc2c(c1)c1cc(Br)ccc1[nH]2,Clc1ccc2c(c1)c1cc(Br)ccc1[nH]2,294.9,0.039916826,0.3748,-8.0297,4.33492,318.72544577250295,0.011390371,-0.5229,-8.4048,213.22942,-0.956,-8.752,4.28148,NaN,NaN,373.0,NaN,302.0,NaN,NaN
KRMCKWZRTVLKIS-UHFFFAOYSA-N,COc1ccc(cc1)c1cn2nc(cc2c(=O)[nH]1)c1ccc(cc1)OC,COc1ccc(cc1)c1cn2nc(cc2c(=O)[nH]1)c1ccc(cc1)OC,289.9,1.049325795,0.6797,-7.4654,6.19969,386.3639713477833,0.494146001,-0.8889,-7.6877,58.21977,-0.833,-8.291,5.80367,301.34942276751684,0.9117405489,330,NaN,330,NaN,THF
FRPHFZCDPYBUAU-UHFFFAOYSA-N,Brc1cc(c(c(c1O)Br)C)C1(OS(=O)(=O)c2c1cccc2)c1cc(Br)c(c(c1C)Br)O,Brc1cc(c(c(c1O)Br)C)C1(OS(=O)(=O)c2c1cccc2)c1cc(Br)c(c(c1C)Br)O,251.2,0.032169207,0.1878,-8.8686,5.66349,309.8055932171506,0.000301028,-1.0022,-9.023,324.96781,-1.074,-9.433,5.93996,NaN,NaN,NaN,NaN,NaN,NaN,NaN
BSUISKLNLZGOFY-UHFFFAOYSA-N,O=C(c1ccc(cc1)Cn1c2ccccc2c2c1cccc2)NN=Cc1ccc(cc1)[N+](=O)[O-],O=C(c1ccc(cc1)Cn1c2ccccc2c2c1cccc2)NN=Cc1ccc(cc1)[N+](=O)[O-],320.0,0.001758608,-0.8591,-7.8781,3.08651,466.45672838789943,0.006711023,-2.7627,-7.9943,123.06100,-1.525,-8.471,4.18534,NaN,NaN,295,NaN,295,NaN,NaN
SADFJQHXQCWOGE-UHFFFAOYSA-N,N#CC(=Cc1ccc(s1)c1ccc(cc1)N(c1ccccc1)c1ccccc1)C#N,N#CC(=Cc1ccc(s1)c1ccc(cc1)N(c1ccccc1)c1ccccc1)C#N,373.9,1.709373455,-1.2794,-7.5309,10.21061,429.90360057386846,0.877039823,-1.5617,-7.4541,304.25846,-1.895,-8.245,7.75833,408.87838607406735,1.3931154279,511.0,NaN,304.0,NaN,NaN
LUBXLGUQZVKOFP-UHFFFAOYSA-N,c1ccc(cc1)c1c2ccccc2cc2c1cccc2,c1ccc(cc1)c1c2ccccc2cc2c1cccc2,362.0,0.182101827,-0.0855,-7.3864,0.27310,373.89685888270105,0.236567299,-0.6434,-7.2215,6.42987,-1.072,-8.297,0.22328,NaN,NaN,386,NaN,386,NaN,NaN
PZEXBZWRIBJAEL-UHFFFAOYSA-N,Clc1cccc(c1)c1ccn(c1)C,Clc1cccc(c1)c1ccn(c1)C,252.4,0.13089934,1.302,-7.9295,3.71576,292.07113876443736,0.182800543,0.1111,-7.847,143.92250,-0.147,-8.708,4.67224,NaN,NaN,276,13700,276,13700,NaN
PITFUOGBDPEUBC-UHFFFAOYSA-N,N#CCC(=O)c1ccc(s1)c1ccc(s1)c1ccc(cc1)N(c1ccccc1)c1ccccc1,N#CCC(=O)c1ccc(s1)c1ccc(s1)c1ccc(cc1)N(c1ccccc1)c1ccccc1,356.3,1.593987771,-0.6821,-7.2753,6.01546,441.85387885069014,0.936219052,-1.4366,-7.3123,458.16184,-1.581,-8.105,4.66709,395.0554199886549,1.3776170178,412.0,NaN,407.0,NaN,NaN
FQUUMQNYCLGCCK-UHFFFAOYSA-N,Oc1cc(O)cc(c1)c1coc2c(c1=O)ccc(c2)O,Oc1cc(O)cc(c1)c1coc2c(c1=O)ccc(c2)O,287.1,0.000455744,0.2898,-8.265,5.73666,368.45229838188305,0.000595564,-1.0595,-8.5652,12.78459,-0.874,-9.124,2.90842,NaN,NaN,185,NaN,185,NaN,NaN
XGDRLCRGKUCBQL-UHFFFAOYSA-N,N#Cc1[nH]cnc1C#N,N#Cc1[nH]cnc1C#N,220.7,0.404793117,-0.2654,-10.0309,7.39206,298.1105996766138,0.301567181,-1.1901,-9.2121,19.07146,-1.536,-10.662,7.04961,NaN,NaN,320.0,NaN,315.0,NaN,MeCN
JBPCBPPSXAHIFO-UHFFFAOYSA-N,CCCCC(COc1cc(c(cc1c1ccccc1C#N)OC)c1ccccc1C#N)CC,C(COc1cc(c(cc1c1ccccc1C#N)OC)c1ccccc1C#N)CC,294.7,0.305414202,0.2314,-7.9074,0.48537,306.6638595238775,0.166554296,-0.2823,-8.1706,89.90599,-0.775,-8.509,0.47497,NaN,NaN,408.0,NaN,259.0,NaN,NaN
WQZZYQQQGWBDLP-UHFFFAOYSA-N,Cn1cc(n(c1=S)C)P(=S)(c1ccccc1)c1ccccc1,Cn1cc(n(c1=S)C)P(=S)(c1ccccc1)c1ccccc1,250.8,0.065290989,0.4432,-7.5125,7.20146,379.8535490364696,6.945e-06,-0.1971,-8.1553,165.28194,-0.65,-7.841,8.32755,NaN,NaN,209,NaN,209,NaN,NaN
XJYIEHYOQUDASD-UHFFFAOYSA-N,Brc1ccc(cc1)c1nc2c(nc1c1ccc(cc1)Br)ccc1c2C(=O)c2ccccc2C1=O,Brc1ccc(cc1)c1nc2c(nc1c1ccc(cc1)Br)ccc1c2C(=O)c2ccccc2C1=O,401.1,0.008894324,-1.5266,-8.5682,1.84770,437.79731075389714,0.002955323,-2.1343,-8.4584,682.49980,-2.082,-9.494,2.25846,NaN,NaN,266,35481.33892335753,266,35481.33892335753,Hexane
QEPFWHSTIHSARG-UHFFFAOYSA-N,Cc1cc(C)cc(c1)n1c(=O)c2cc(N=Cc3ccc(s3)c3cccs3)cc3c2c(c1=O)ccc3,Cc1cc(C)cc(c1)n1c(=O)c2cc(N=Cc3ccc(s3)c3cccs3)cc3c2c(c1=O)ccc3,340.4,1.570147412,-0.7815,-7.8822,3.79511,393.9758449491696,0.926275483,-1.4437,-7.8881,368.66960,-1.672,-9.05,5.52224,365.810618739089,1.3740598658,375.0,NaN,257.0,NaN,Chloroform
YFAVFLULTVYMOS-UHFFFAOYSA-N,Oc1ccc(cc1N=Nc1nccs1)OCc1ccccc1,Oc1ccc(cc1N=Nc1nccs1)OCc1ccccc1,436.5,0.000223417,-1.0237,-7.8629,2.70963,564.077335784821,5.6359e-05,-1.9395,-8.2574,231.43996,-1.805,-8.653,3.24359,NaN,NaN,621.0,NaN,483.0,NaN,DMF
UFBJCMHMOXMLKC-UHFFFAOYSA-N,[O-][N+](=O)c1ccc(c(c1)[N+](=O)[O-])O,[O-][N+](=O)c1ccc(c(c1)[N+](=O)[O-])O,311.3,4.173e-06,-1.27,-10.0015,3.43703,371.09906736157933,0.108029287,-3.3364,-10.4422,42.32688,-2.081,-10.786,3.69137,NaN,NaN,NaN,NaN,NaN,NaN,NaN
NIAJLHSDXVRPPP-UHFFFAOYSA-N,C#CCn1c(ccc1c1cccs1)c1cccs1,C#CCn1c(ccc1c1cccs1)c1cccs1,288.9,0.912992109,0.772,-7.3794,2.22246,371.09906736157933,0.534961152,-0.2188,-7.1876,89.92207,-0.672,-8.413,2.88691,310.1000275354896,0.7541801188,318,NaN,318,NaN,NaN
ULFRLSNUDGIQQP-UHFFFAOYSA-N,CN(CCc1c[nH]c2c1cc(cc2)Cn1cncn1)C,CN(CCc1c[nH]c2c1cc(cc2)Cn1cncn1)C,271.7,0.075261367,1.1027,-7.9081,5.13148,311.7530762019202,0.016345687,0.2017,-7.8077,79.68282,-0.434,-8.762,6.1282,NaN,NaN,NaN,NaN,NaN,NaN,NaN
MTUXFDKUGSYLAV-UHFFFAOYSA-N,CC(c1cccc2c1n(c1ccc(cc1)c1ccc3c(c1)c(c1ccccc1)c1c(c3c3ccccc3)cccc1)c1c2cccc1)(C)C,CC(c1cccc2c1n(c1ccc(cc1)c1ccc3c(c1)c(c1ccccc1)c1c(c3c3ccccc3)cccc1)c1c2cccc1)(C)C,374.3,0.233431008,-0.2778,-7.3521,2.22018,391.1173451277718,0.245313898,-0.6614,-7.0688,51.72048,-1.151,-8.217,1.6564,NaN,NaN,331,NaN,331,NaN,dichloromethane
CXDGOJQJXNXUJO-UHFFFAOYSA-N,Oc1cc(ccc1N=Nc1c(O)c2c(cc1S(=O)(=O)O)cc(c(c2O)N=Nc1ccc(cc1O)S(=O)(=O)O)S(=O)(=O)O)S(=O)(=O)O,Oc1cc(ccc1N=Nc1c(O)c2c(cc1S(=O)(=O)O)cc(c(c2O)N=Nc1ccc(cc1O)S(=O)(=O)O)S(=O)(=O)O)S(=O)(=O)O,436.7,0.039667213,-2.3218,-8.7591,4.70568,575.0658553130967,0.006338784,-2.9096,-9.1305,26.79348,-2.739,-9.391,3.63045,NaN,NaN,230,NaN,230,NaN,NaN
QHXJLHSKVDZVOA-UHFFFAOYSA-N,Oc1ccccc1C=Nc1nc2c(s1)cccc2,Oc1ccccc1C=Nc1nc2c(s1)cccc2,325.7,0.867765685,-0.6699,-8.2601,1.37887,370.7661435571282,0.775380037,-1.3203,-7.9301,77.71606,-1.501,-8.963,1.40682,343.72263871043066,0.6950473379,261,NaN,261,NaN,NaN
PLCULXPWFUFVKV-UHFFFAOYSA-N,CCCCn1c(nc2c1c(sc2c1cccs1)c1cccs1)c1ccc(s1)c1ccc(s1)C=C(C(=O)O)C#N,Cn1c(nc2c1c(sc2c1cccs1)c1cccs1)c1ccc(s1)c1ccc(s1)C=C(C(=O)O)C#N,397.7,1.850146331,-1.4331,-7.1664,4.49746,511.90833363131156,0.942564684,-2.0798,-6.8934,38.36736,-2.145,-8.203,1.52907,442.76906295707255,1.2541009763,414,32700.000000000004,414,32700.000000000004,THF
JXLMHCVXQKFTKZ-UHFFFAOYSA-N,Clc1ccc(cc1)c1nn(c2c1c1c(cn2)c(=O)[nH]n1c1ccccc1)c1ccccc1,Clc1ccc(cc1)c1nn(c2c1c1c(cn2)c(=O)[nH]n1c1ccccc1)c1ccccc1,286.2,0.503343586,0.1353,-8.078,3.85036,334.9113949365307,0.210709926,-1.0539,-8.2359,147.02933,-1.164,-8.916,2.78834,NaN,NaN,369,NaN,369,NaN,DMSO
RNXXAEJJNAOIQV-UHFFFAOYSA-N,Cc1ccccc1Nc1nnc(s1)c1cnccn1,Cc1ccccc1Nc1nnc(s1)c1cnccn1,303.0,0.117183065,-0.0995,-8.0677,4.08951,385.64291883515915,0.621749715,-1.0201,-7.8778,112.32115,-1.394,-8.734,6.02157,NaN,NaN,267.0,NaN,264.0,NaN,NaN
XYJRPDUISFKALN-UHFFFAOYSA-N,N#Cc1cc2ccc(cc2c2c1ccc(c2)C)Br,N#Cc1cc2ccc(cc2c2c1ccc(c2)C)Br,305.8,0.14474539,-0.4012,-8.4906,3.39788,340.6159296854496,0.014776775,-1.0136,-8.2625,306.55338,-1.467,-9.167,2.89106,NaN,NaN,268,NaN,268,NaN,NaN