inchikey,smi_pre,smi_post,lambda_sTDA (nm),f1_sTDA,lumo_dft,homo_dft,dmom_dft (D),lambda_z (nm),f1_z,lumo_z,homo_z,dmom_z (D),lumo_mopac,homo_mopac,dmom_mopac (D),lambda_tddft (nm),f1_tddft,lambda_exp_max (nm),epsilon_exp_max ,lambda_exp_min (nm),epsilon_exp_min ,solvent
VDNRBKVHDQIDOZ-UHFFFAOYSA-N,CCCSC(=O)c1ccc(cn1)C(=O)SCCC,CCCSC(=O)c1ccc(cn1)C(=O)SCCC,322.5,0.000102663,-0.6795,-9.2084,2.30567,360.41918141134784,0.000281008,-1.6744,-9.8824,29.47154,-1.672,-9.11,1.94673,NaN,NaN,613,NaN,613,NaN,acetonitrile
ONDSMPPDFQBPBK-UHFFFAOYSA-N,O=C(c1cc(C(=O)CC(=O)c2ccc(cc2)F)c(nc1C)C)CC(=O)c1ccc(cc1)F,O=C(c1cc(C(=O)CC(=O)c2ccc(cc2)F)c(nc1C)C)CC(=O)c1ccc(cc1)F,300.4,0.003838143,-0.4736,-9.5003,3.77377,364.874038862577,0.000879122,-1.4516,-9.3005,99.40366,-1.101,-10.226,2.04014,NaN,NaN,340,37153.52290971728,340,37153.52290971728,NaN
JVWSNQRNBCTQMK-UHFFFAOYSA-N,CCCCCCOc1ccc(cc1)n1c2cc(sc2c2c1cc(s2)C=C(C(=O)O)C#N)c1ccc(cc1)N(c1ccccc1)c1ccccc1,COc1ccc(cc1)n1c2cc(sc2c2c1cc(s2)C=C(C(=O)O)C#N)c1ccc(cc1)N(c1ccccc1)c1ccccc1,389.3,2.215124073,-0.9855,-7.132,6.35446,546.908682865036,1.004559726,-1.718,-7.0758,570.83469,-1.807,-8.085,4.49054,430.99451805624307,1.7750767936,610.0,NaN,427.0,NaN,chloroform
WAYCNXGAKFXIKA-UHFFFAOYSA-N,OC(=O)c1ccc(cc1O)n1c(C)ccc1C,OC(=O)c1ccc(cc1O)n1c(C)ccc1C,284.3,0.008871368,0.1337,-7.6911,2.87921,329.3072998818158,0.0226514,-1.0101,-7.7154,155.38473,-1.139,-8.659,2.27299,NaN,NaN,385,NaN,385,NaN,NaN
PHSYFNWPKMZATR-UHFFFAOYSA-N,CCN(c1ccc(c(c1)O)N=Nc1nc2c(s1)cc(cc2)C)CC,CCN(c1ccc(c(c1)O)N=Nc1nc2c(s1)cc(cc2)C)CC,397.1,0.009940402,-0.7162,-7.432,5.49341,520.2861871821387,0.00022069,-1.22,-7.8865,141.16292,-1.231,-8.191,4.55108,NaN,NaN,532,49600,532,49600,methanol
AMKVXSZCKVJAGH-UHFFFAOYSA-N,CNS(=O)(=O)CCc1ccc2c(c1)c(c[nH]2)C1CCN(CC1)C,CNS(=O)(=O)CCc1ccc2c(c1)c(c[nH]2)C1CCN(CC1)C,269.2,0.077485765,1.3519,-7.8126,5.75062,311.98842074862523,0.014451778,0.0204,-7.8935,260.39840,-0.191,-8.521,4.21346,NaN,NaN,NaN,NaN,NaN,NaN,NaN
XGPMOQYCZVDSEY-UHFFFAOYSA-N,c1cc(cc(c1)n1c2ccccc2c2c1cccc2)c1noc(n1)c1cccc(c1)n1c2ccccc2c2c1cccc2,c1cc(cc(c1)n1c2ccccc2c2c1cccc2)c1noc(n1)c1cccc(c1)n1c2ccccc2c2c1cccc2,288.6,0.05975876,-0.1452,-7.7373,1.16220,323.97229789784075,0.034152584,-0.9716,-7.7582,60.69453,-1.318,-8.236,2.6687,NaN,NaN,337.0,NaN,291.0,NaN,NaN
BHIIGRBMZRSDRI-UHFFFAOYSA-N,ClP(=O)(Oc1ccccc1)Oc1ccccc1,ClP(=O)(Oc1ccccc1)Oc1ccccc1,231.8,0.003373516,1.2226,-9.3833,3.61321,287.1999036495336,0.01700524,-1.0993,-8.9193,168.13654,-0.543,-9.026,2.28873,NaN,NaN,419,398000.0,419,398000.0,NaN
QTCFTKNVOLWJHH-UHFFFAOYSA-N,Cn1c(=S)n(c(c1P(=S)(c1ccccc1)c1ccccc1)P(=S)(c1ccccc1)c1ccccc1)C,Cn1c(=S)n(c(c1P(=S)(c1ccccc1)c1ccccc1)P(=S)(c1ccccc1)c1ccccc1)C,276.8,0.180038578,0.3545,-7.6617,4.41257,392.1068893279686,0.000136407,-0.3982,-8.1514,111.43522,-0.618,-7.823,4.94466,NaN,NaN,265,NaN,265,NaN,NaN
CRYSPTIMBUXJRV-UHFFFAOYSA-N,C(=CC=C1C=C(OC(=C1)c1ccccc1)c1ccccc1)C=Cc1ccncn1,C(=CC=C1C=C(OC(=C1)c1ccccc1)c1ccccc1)C=Cc1ccncn1,391.8,2.744396104,-0.5914,-6.7892,5.78227,433.5111832360268,1.768102444,-1.0716,-6.9109,94.61871,-1.197,-7.977,6.32019,429.70988461941374,2.1246030609,469.0,NaN,254.0,NaN,dichloromethane
WLFLDMFUZBCLLH-UHFFFAOYSA-N,COc1ccc(cc1)c1c([nH]c2c1cccc2)c1ccc(cc1)S(=O)(=O)NC(=O)C,COc1ccc(cc1)c1c([nH]c2c1cccc2)c1ccc(cc1)S(=O)(=O)NC(=O)C,307.4,0.534044826,0.0355,-7.5668,4.47560,355.1538195517149,0.367043889,-0.5836,-7.4986,309.51052,-0.908,-8.317,3.91173,NaN,NaN,256,NaN,256,NaN,NaN
OBOUTJZBTXKTFV-UHFFFAOYSA-N,Clc1ccc(cc1)n1c(nc(c1c1ccccc1)c1ccccc1)c1ccc(cc1)C=Cc1ccccc1,Clc1ccc(cc1)n1c(nc(c1c1ccccc1)c1ccccc1)c1ccc(cc1)C=Cc1ccccc1,322.6,1.741447341,-0.0476,-7.4211,2.35443,359.68725966203556,0.522976379,-0.4477,-7.2634,194.81992,-0.865,-8.519,2.52767,327.84439422824966,1.578945258,339,NaN,339,NaN,NaN
ZWKMXNGMHDUWQE-UHFFFAOYSA-N,CCC1(CO)COC(N1)c1ccc(cc1)C1OCC(N1)(CC)CO,CCC1(CO)COC(N1)c1ccc(cc1)C1OCC(N1)(CC)CO,234.3,0.012244033,1.4294,-9.1248,3.40202,273.2735252490713,0.011682824,0.6724,-8.632,71.95881,-0.152,-9.652,2.74992,NaN,NaN,NaN,NaN,NaN,NaN,NaN
BJYNJHLJBCSZEQ-UHFFFAOYSA-N,c1ccc(cc1)C=Cc1ccc(cc1)c1nc(c(n1c1ccccc1)c1ccccc1)c1ccccc1,c1ccc(cc1)C=Cc1ccc(cc1)c1nc(c(n1c1ccccc1)c1ccccc1)c1ccccc1,322.9,1.776304751,0.0191,-7.3355,4.11041,359.27035179804017,0.562611143,-0.33,-7.1162,38.98926,-0.708,-8.408,4.7116,326.23126696287187,1.6004027581,331,NaN,331,NaN,NaN
JRNGUTKWMSBIBF-UHFFFAOYSA-N,Oc1cc2ccccc2cc1O,Oc1cc2ccccc2cc1O,283.3,0.050291362,0.8926,-7.8957,2.55472,321.78613653128383,0.009500114,-0.2394,-8.053,79.60904,-0.673,-8.845,2.31268,NaN,NaN,701,NaN,701,NaN,NaN
LEAOHTNDIKYMRB-ZDUSSCGKSA-N,COC(=O)[C@H](Cc1ccc2c(c1)nc(o2)c1ncc[nH]1)NC(=O)OC(C)(C)C,COC(=O)[C@H](Cc1ccc2c(c1)nc(o2)c1ncc[nH]1)NC(=O)OC(C)(C)C,267.3,0.979052312,0.3132,-8.2864,3.02353,381.13802153551694,0.584644024,-1.1471,-7.9798,112.29914,-1.088,-9.229,2.24332,278.18482130907006,0.8792135517,322.0,NaN,242.0,NaN,NaN
RYEKDXOACFEXKG-UHFFFAOYSA-N,O=C(c1cccs1)CC(=O)c1cccs1,O=C(c1cccs1)CC(=O)c1cccs1,303.6,0.016688402,-0.3402,-9.2258,0.83289,363.0576820073314,0.005916797,-1.3329,-8.8856,70.49723,-1.118,-9.221,0.73505,NaN,NaN,370,NaN,370,NaN,NaN
IXHADGDMHSPJBI-UHFFFAOYSA-N,COC(=O)COc1nc(sc1C)c1ccc2c(n1)c1ncccc1cc2,COC(=O)COc1nc(sc1C)c1ccc2c(n1)c1ncccc1cc2,327.5,0.638559866,-0.1977,-7.6127,4.00014,393.6006298587418,0.456442857,-1.0314,-7.6301,160.64475,-1.409,-8.487,4.0318,NaN,NaN,234,36812.89736425313,234,36812.89736425313,CH 3 CN
MZNJEIFMTWVNNA-UHFFFAOYSA-N,COc1ccc(cc1)C=NNC(=O)c1ccc(cc1)Cn1c2ccccc2c2c1cccc2,COc1ccc(cc1)C=NNC(=O)c1ccc(cc1)Cn1c2ccccc2c2c1cccc2,289.6,0.0657727,0.3969,-7.7466,4.79283,316.6092911274353,0.021508042,-0.5291,-7.9368,123.51978,-0.617,-8.348,5.22424,NaN,NaN,319,NaN,319,NaN,NaN
WVMBHCJYDKDMJI-UHFFFAOYSA-N,c1csc(c1)c1ccc2c3c1ccc1c3c(cc2)c(cc1)c1cccs1,c1csc(c1)c1ccc2c3c1ccc1c3c(cc2)c(cc1)c1cccs1,352.7,0.718395656,-0.2772,-7.3251,0.00030,369.1104447916155,0.320558726,-0.7228,-7.2308,0.05063,-1.276,-8.322,0.00127,NaN,NaN,371,NaN,371,NaN,chloroform
LFZCUZLNOLBKIZ-UHFFFAOYSA-N,CCCCC1(CCCC)c2cc(ccc2c2c1cccc2)C#Cc1ccc2c3c1ccc1c3c(cc2)c(cc1)C#Cc1ccc2c(c1)C(CCCC)(CCCC)c1c2cccc1,C1(C)c2cc(ccc2c2c1cccc2)C#Cc1ccc2c3c1ccc1c3c(cc2)c(cc1)C#Cc1ccc2c(c1)C(C)(C)c1c2cccc1,401.9,2.432399354,-0.7152,-7.0214,0.13041,405.3095730810842,1.311184864,-0.8512,-6.9364,34.71853,-1.428,-8.198,0.39898,411.37460768187213,2.405654641,428,98900,428,98900,NaN
ARVZHGICAVRJCQ-UHFFFAOYSA-N,CCCCCCCCC1(CCCCCCCC)c2cc3nc([nH]c3cc2c2c1cc1nc([nH]c1c2)c1ccc(cc1)C(F)(F)F)c1ccc(cc1)C(F)(F)F,C1(C)c2cc3nc([nH]c3cc2c2c1cc1nc([nH]c1c2)c1ccc(cc1)C(F)(F)F)c1ccc(cc1)C(F)(F)F,333.9,2.098062153,-0.3979,-7.5063,3.68881,408.24563189168146,1.420187635,-1.0912,-7.2037,185.92215,-1.625,-8.731,3.75089,342.0064907018632,2.0060302818,378.0,NaN,377.0,NaN,NaN
AUIOLLBDDPQZIU-UHFFFAOYSA-N,CCCCCc1c(sc2c1sc(c2)C=O)c1nc2c(s1)cccc2,Cc1c(sc2c1sc(c2)C=O)c1nc2c(s1)cccc2,328.5,1.298757288,-0.8704,-8.1347,3.73410,449.38092934216627,0.938713645,-1.8847,-7.863,170.48116,-1.827,-8.513,2.96333,NaN,NaN,378,50000.0,378,50000.0,NaN
UTTRKGLGOPRNSA-UHFFFAOYSA-N,CCN1C(=O)C(=CC=c2c3cccc4c3c(n2Cc2ccccc2)ccc4)C(=O)N(C1=S)CC,CCN1C(=O)C(=CC=c2c3cccc4c3c(n2Cc2ccccc2)ccc4)C(=O)N(C1=S)CC,432.8,1.3603596,-1.4263,-7.4909,7.46637,476.49576635474125,0.754972955,-1.957,-7.8028,209.98417,-2.045,-8.254,9.88598,472.879183070443,1.0394216042,613.0,NaN,557.0,NaN,EtOH
AKEJPIWBLKXBDV-UHFFFAOYSA-N,CCC1(CC)c2cc(ccc2c2c1cccc2)C1=C(c2ccc3c(c2)C(CC)(CC)c2c3cccc2)C(C(C1(F)F)(F)F)(F)F,CCC1(CC)c2cc(ccc2c2c1cccc2)C1=C(c2ccc3c(c2)C(CC)(CC)c2c3cccc2)C(C(C1(F)F)(F)F)(F)F,281.3,0.401857741,0.1223,-8.2433,5.49118,324.22646026543845,0.268422524,-0.5301,-7.9455,643.14096,-1.316,-8.923,5.23715,NaN,NaN,353.0,NaN,323.0,NaN,NaN
ROVAIXUMXXCJAN-UHFFFAOYSA-N,N#Cc1ccc(cc1)c1cnc(n1C)c1ccc(cc1)c1nc2c(s1)cccc2,N#Cc1ccc(cc1)c1cnc(n1C)c1ccc(cc1)c1nc2c(s1)cccc2,317.6,1.876121603,-0.4652,-8.0087,4.59044,352.127800072433,0.870173668,-0.8091,-7.7862,78.63897,-1.316,-9.091,4.71743,326.48898751610125,1.7741186436,343,42000,343,42000,NaN
SUYVUBYJARFZHO-RRKCRQDMSA-N,O[C@H]1C[C@@H](O[C@@H]1COP(=O)(OP(=O)(OP(=O)(O)O)O)O)n1cnc2c1ncnc2N,O[C@H]1C[C@@H](O[C@@H]1COP(=O)(OP(=O)(OP(=O)(O)O)O)O)n1cnc2c1ncnc2N,242.5,0.224867428,0.4004,-9.196,8.15576,304.779248784424,0.220821562,-0.5558,-8.2991,294.19505,-1.424,-9.035,2.98001,NaN,NaN,519.0,NaN,346.0,NaN,Toluene
PRQQQHVMPBGJMT-UHFFFAOYSA-N,Clc1cc(C=Nc2sc3c(n2)ccc(c3)C)c(c(c1)Cl)O,Clc1cc(C=Nc2sc3c(n2)ccc(c3)C)c(c(c1)Cl)O,339.0,0.798416297,-0.965,-8.3385,3.56967,390.1327828996339,0.644175641,-1.7496,-7.9857,346.02262,-1.793,-9.122,4.24332,NaN,NaN,273,44700,273,44700,methanol
FIQJYBQBZNZXOX-UHFFFAOYSA-N,COC(=O)CCCc1c(C)c([nH]c1C(c1[nH]c(c(c1CCCC(=O)OC)C)C=C1NC(=O)C(=C1CC)C)(C)C)C=C1NC(=O)C(=C1CC)C,COC(=O)Cc1c(C)c([nH]c1C(c1[nH]c(c(c1C(=O)OC)C)C=C1NC(=O)C(=C1CC)C)(C)C)C=C1NC(=O)C(=C1CC)C,307.1,1.243863013,-0.0378,-7.2928,4.33194,411.9076358986833,0.46924247,-0.9409,-6.991,56.92734,-1.04,-8.05,5.45259,356.38906841024306,1.2337110273,433.0,NaN,382.0,NaN,Benzene
RVWPQZWRXDGDCG-QGZVFWFLSA-N,O[C@@H](c1ccc2c(c1)cccc2)c1ccccc1,O[C@@H](c1ccc2c(c1)cccc2)c1ccccc1,288.6,0.057345895,0.5078,-8.1662,1.64328,317.82670701231393,0.012663906,-0.2207,-7.905,37.53194,-0.698,-9.07,1.90623,NaN,NaN,NaN,NaN,NaN,NaN,NaN
DABSKCJKPYZKRS-UHFFFAOYSA-N,CCc1sc2c(c1)c(=O)oc(c2c1ccccc1)c1ccccc1,CCc1sc2c(c1)c(=O)oc(c2c1ccccc1)c1ccccc1,309.8,0.684965057,0.0817,-7.833,4.62346,421.7149605629376,0.405585074,-1.0782,-7.6571,89.86681,-1.117,-8.699,3.74521,NaN,NaN,NaN,NaN,NaN,NaN,NaN
IALWSPASGOHZLZ-UHFFFAOYSA-N,N#CC(=C1OC(=O)C(=C(c2cc(oc2C)C)C)C1=C(c1ccccc1)c1ccccc1)C#N,N#CC(=C1OC(=O)C(=C(c2cc(oc2C)C)C)C1=C(c1ccccc1)c1ccccc1)C#N,314.0,0.287992204,-0.7966,-8.5141,9.55213,373.1092338414194,0.174275391,-1.3487,-8.2157,170.48759,-1.364,-9.268,11.03902,NaN,NaN,610.0,NaN,333.0,NaN,NaN
GPLKJENHDFARMJ-UHFFFAOYSA-N,Clc1ccc(cc1)N=Nc1c([nH]c2n1nc(c2N=Nc1ccccc1)C)c1ccccc1,Clc1ccc(cc1)N=Nc1c([nH]c2n1nc(c2N=Nc1ccccc1)C)c1ccccc1,442.6,0.002388031,-0.9429,-7.4769,4.15725,531.209076287505,0.003823256,-1.631,-7.6412,302.12326,-1.706,-8.567,4.46247,NaN,NaN,532.0,NaN,330.0,NaN,dioxane
SPLYDLDEDYXZSN-PRKAKTJASA-N,OC[C@H]1O[C@H](C[C@@]1(O)n1nnc(c1)CNC(=O)Cc1cc(=O)oc2c1c1ccccc1cc2)n1cc(C)c(=O)[nH]c1=O,OC[C@H]1O[C@H](C[C@@]1(O)n1nnc(c1)CNC(=O)Cc1cc(=O)oc2c1c1ccccc1cc2)n1cc(C)c(=O)[nH]c1=O,315.2,0.299357086,-0.7761,-8.7158,2.89683,378.80903881913736,0.341677703,-1.6669,-8.4626,121.59583,-1.95,-9.36,14.39262,NaN,NaN,350.0,NaN,319.0,NaN,NaN
AOXICZSTSMJWOL-UHFFFAOYSA-N,O=C(c1cn(C)c2c(c1=O)c(F)c(c(c2)F)F)c1ccccc1Cc1ccccc1,O=C(c1cn(C)c2c(c1=O)c(F)c(c(c2)F)F)c1ccccc1Cc1ccccc1,293.3,0.013684997,0.1315,-8.4884,5.80842,403.5943958512489,8.7059e-05,-1.5063,-8.4876,217.25703,-1.224,-9.251,6.1537,NaN,NaN,473.0,NaN,329.0,NaN,NaN
JMYFJQAVWIPTSS-SGNDLWITSA-N,CC[C@@H]([C@H](C(=O)c1ccccc1)[C@H](c1ccc(cc1)Br)C[N+](=O)[O-])c1ccccc1,CC[C@@H]([C@H](C(=O)c1ccccc1)[C@H](c1ccc(cc1)Br)C[N+](=O)[O-])c1ccccc1,303.9,0.001230668,-0.2659,-8.6593,5.53708,432.0006913083751,0.001899427,-2.521,-8.2623,460.63175,-0.833,-9.652,6.06905,NaN,NaN,NaN,NaN,NaN,NaN,NaN
GTQMXCXZKKXHKS-UHFFFAOYSA-N,CCCCCCc1ccsc1c1sc(c2c1cccc2)c1csc2c1cccc2,Cc1ccsc1c1sc(c2c1cccc2)c1csc2c1cccc2,358.3,0.5223536,-0.0329,-7.3293,1.47885,459.2007348351987,0.302762136,-0.828,-6.9581,173.84251,-1.235,-8.207,1.11375,NaN,NaN,455,NaN,455,NaN,CH 2 Cl
KXNSPFMLMMMRBU-UHFFFAOYSA-N,O=c1cc(c2cc(nc(c2)c2cc3ccccc3oc2=O)c2cc3ccccc3oc2=O)c2c(o1)c1ccccc1cc2,O=c1cc(c2cc(nc(c2)c2cc3ccccc3oc2=O)c2cc3ccccc3oc2=O)c2c(o1)c1ccccc1cc2,315.1,0.163807109,-0.6954,-8.0599,10.26322,368.45229838188305,0.558084162,-1.4255,-7.8875,112.77116,-1.606,-8.814,8.96609,NaN,NaN,350,NaN,350,NaN,chlorobenzene
FTEGUKWEUQPKIS-UHFFFAOYSA-N,O=C(C=Cc1ccc(cc1)O)C=Cc1ccc(cc1)O,O=C(C=Cc1ccc(cc1)O)C=Cc1ccc(cc1)O,351.3,2.6641e-05,-0.4365,-8.0329,3.43940,382.07765302158293,0.025658402,-0.9926,-8.2986,4.00583,-0.876,-9.117,0.63986,NaN,NaN,376.0,53200,241.0,22000,NaN
GKLIIWZBWFSRCO-UHFFFAOYSA-N,CCOC(=O)C1=C(c2ccccc2)N(C(=O)C1=Cc1ccccc1)C,CCOC(=O)C1=C(c2ccccc2)N(C(=O)C1=Cc1ccccc1)C,348.1,0.512995222,-0.3425,-7.8558,2.29185,365.0889234555467,0.408835521,-0.871,-7.9536,60.08281,-1.083,-8.744,2.40553,NaN,NaN,409,8700,409,8700,NaN
YQHLDYVWEZKEOX-UHFFFAOYSA-N,OOC(c1ccccc1)(C)C,OOC(c1ccccc1)(C)C,232.4,0.002875024,1.4418,-9.2948,2.21960,269.64810440518414,0.005639618,0.5612,-8.9083,57.84625,0.054,-9.749,1.91108,NaN,NaN,NaN,NaN,NaN,NaN,NaN
FETLPNKZRXDWLT-UHFFFAOYSA-N,Oc1ccccc1C1=NCCO1,Oc1ccccc1C1=NCCO1,263.4,0.149417206,0.8096,-8.3922,2.21422,291.933596433962,0.097528565,-0.3588,-8.7081,33.54717,-0.557,-9.194,2.53591,NaN,NaN,250,NaN,250,NaN,ethanol
CWITYVLWAYVDRJ-UHFFFAOYSA-N,C1=CC(C=C1)Cc1c2ccccc2c(c2c1cccc2)CC1C=CC=C1,C1=CC(C=C1)Cc1c2ccccc2c(c2c1cccc2)CC1C=CC=C1,378.6,0.230816109,-0.2404,-7.3164,0.34772,387.2086146330533,0.23731901,-0.6612,-7.098,3.10931,-1.087,-8.18,0.55659,NaN,NaN,NaN,NaN,NaN,NaN,NaN
HTSCPVPNXMPNQZ-UHFFFAOYSA-N,CCCCCc1ccc(cc1)c1ccc(cc1)O,Cc1ccc(cc1)c1ccc(cc1)O,252.9,0.287946226,1.2837,-7.896,1.30690,286.2054441493621,0.036927677,0.3371,-8.0278,87.16618,-0.083,-8.798,1.51324,NaN,NaN,278,NaN,278,NaN,NaN
VTDPXQYPDDHNLB-UHFFFAOYSA-N,Clc1ccc(cc1)N=Nc1ccc(c2c1cccn2)O,Clc1ccc(cc1)N=Nc1ccc(c2c1cccn2)O,440.1,0.005987494,-0.8211,-7.9019,1.88408,528.7172639893546,0.005762497,-1.595,-8.0891,133.75040,-1.628,-8.861,1.98993,NaN,NaN,406.0,NaN,390.0,NaN,DMSO
JQXQSODWXYOXRX-DPZUNCSASA-N,OC[C@H]1O[C@@H](Oc2c(OC)cc3c(c2O)c(=O)c2c(o3)cc(c(c2)O)O)[C@@H]([C@H]([C@@H]1O)O)O,OC[C@H]1O[C@@H](Oc2c(OC)cc3c(c2O)c(=O)c2c(o3)cc(c(c2)O)O)[C@@H]([C@H]([C@@H]1O)O)O,305.4,0.230594543,-0.1728,-8.1981,5.71088,361.4699661968037,0.000187087,-1.3992,-8.7852,51.40334,-1.256,-9.342,4.51073,NaN,NaN,366.0,NaN,206.0,NaN,NaN
RYNGAALWTBBLLG-UHFFFAOYSA-N,COc1ccc(cc1)C=Cc1ccn2c(c1)nc(c2)c1ccccc1,COc1ccc(cc1)C=Cc1ccn2c(c1)nc(c2)c1ccccc1,325.1,1.457645939,0.0713,-7.3122,3.28638,379.2725555384021,0.610886143,-0.6215,-7.2826,33.29120,-0.896,-8.516,3.98121,334.45062989733066,1.4486959456,384.0,38904.51449942805,359.0,29512.09226666384,Toluene
CKSGJFGBMWEEJC-UHFFFAOYSA-N,CCC(=O)N1CC2CCCC(C1)N2CC=C(c1cccc(c1)C(F)(F)F)c1cccc(c1)C(F)(F)F,C(=O)N1CC2C(C1)N2CC=C(c1cccc(c1)C(F)(F)F)c1cccc(c1)C(F)(F)F,245.4,0.096866188,0.2804,-9.0079,2.69978,281.7822691034174,0.060468184,-0.4004,-8.7968,235.81299,-1.057,-9.458,2.73692,NaN,NaN,NaN,NaN,NaN,NaN,NaN
IMELZCDFBZOWBS-UHFFFAOYSA-N,O=c1c2c3oc4ccccc4oc3c3c(c2c(=O)c2c1cccc2)oc1c(o3)cccc1,O=c1c2c3oc4ccccc4oc3c3c(c2c(=O)c2c1cccc2)oc1c(o3)cccc1,363.6,0.262179517,-0.875,-7.8819,1.58841,370.54452601764393,0.236197439,-1.7969,-8.4911,3.51472,-1.6,-8.661,1.14773,NaN,NaN,414.0,NaN,0.0,NaN,NaN
PXRKCOCTEMYUEG-UHFFFAOYSA-N,Nc1ccc2c(c1)C(=O)NC2=O,Nc1ccc2c(c1)C(=O)NC2=O,303.0,0.054428231,-0.1113,-8.5364,4.92258,330.6245290813431,0.138956447,-1.4042,-8.9039,60.99521,-1.176,-9.183,5.8791,NaN,NaN,458.0,NaN,357.0,NaN,NaN
JJEWDIPOOFAOQW-UHFFFAOYSA-N,C#Cc1cccc2c1cccc2C#Cc1cccc2c1cccc2N(C)C,C#Cc1cccc2c1cccc2C#Cc1cccc2c1cccc2N(C)C,337.4,0.975748253,-0.2222,-7.5022,1.84954,365.0889234555467,0.701948486,-0.5948,-7.3174,45.18843,-1.049,-8.455,2.18146,344.04693234519925,0.8830773381,397.0,23100,343.0,23100,NaN
SBWVQZWJKKQZLQ-SFHVURJKSA-N,COC(=O)c1cc2ccccc2cc1c1cc2ccccc2cc1C(=O)N[C@H](C(C)(C)C)C,COC(=O)c1cc2ccccc2cc1c1cc2ccccc2cc1C(=O)N[C@H](C(C)(C)C)C,290.4,0.063760744,0.0678,-8.0888,5.15926,322.53953799558707,0.016859691,-0.5156,-8.0726,73.66734,-0.961,-9.03,4.58766,NaN,NaN,226.8,21700,226.8,21700,NaN
OKRGMODQUASSSQ-UHFFFAOYSA-N,ClCc1cc(=O)oc2c1cc1nc(oc1c2)c1cccc(c1)N,ClCc1cc(=O)oc2c1cc1nc(oc1c2)c1cccc(c1)N,301.9,0.728537124,-0.4,-8.1313,5.19620,356.9945246343325,0.500403808,-1.1864,-8.1836,203.58961,-1.566,-8.83,5.52379,NaN,NaN,340,7943.282347242814,340,7943.282347242814,NaN
MBFVPYSMPFLVNR-UHFFFAOYSA-N,N#CC(=Cc1ccc(cc1)N=NC=C1N(C)c2c(C1(C)C)cccc2)C#N,N#CC(=Cc1ccc(cc1)N=NC=C1N(C)c2c(C1(C)C)cccc2)C#N,430.9,0.001977408,-1.3291,-7.578,11.72230,485.83149845416796,0.021351255,-1.2378,-7.7574,204.67701,-1.639,-8.347,10.47484,NaN,NaN,540,NaN,540,NaN,THF
FMTURLJVSLZSQX-UHFFFAOYSA-N,Clc1cccc(c1)N=Nc1c(C)nc2n1nc(C)c1c2c(c2ccccc2)n(n1)c1ccccc1,Clc1cccc(c1)N=Nc1c(C)nc2n1nc(C)c1c2c(c2ccccc2)n(n1)c1ccccc1,429.0,3.0709e-05,-0.4987,-7.6141,6.07405,499.3322529420204,0.066082485,-1.2632,-7.3642,346.26362,-1.383,-8.551,6.63284,NaN,NaN,404.0,NaN,251.0,NaN,NaN
PTPJPUVEYCRTDA-UHFFFAOYSA-N,CCN(c1ccc(c(c1)O)c1[nH]c2c(n1)ccc(c2)n1nc2c(n1)c1cc(ccc1cc2)S(=O)(=O)O)CC,CCN(c1ccc(c(c1)O)c1[nH]c2c(n1)ccc(c2)n1nc2c(n1)c1cc(ccc1cc2)S(=O)(=O)O)CC,329.5,1.793835961,-0.4088,-7.2526,2.07330,433.5111832360268,1.166218515,-1.4671,-7.3564,512.29385,-1.466,-8.215,5.20655,344.2475372313401,1.680825921,379.0,NaN,370.0,NaN,DMSO
IDLDRPASHVDYIX-KCPMXOJXSA-N,OC[C@H]1O[C@H](C[C@@]1(O)n1nnc(c1)CNC(=O)Cc1cc(=O)oc2c1c(OC)cc(c2)OC)n1cc(C)c(=O)[nH]c1=O,OC[C@H]1O[C@H](C[C@@]1(O)n1nnc(c1)CNC(=O)Cc1cc(=O)oc2c1c(OC)cc(c2)OC)n1cc(C)c(=O)[nH]c1=O,279.4,0.34911397,0.0994,-8.4524,6.34613,330.2722386934035,0.35062255,-1.2111,-8.749,84.62216,-0.91,-9.313,6.36606,NaN,NaN,322,NaN,322,NaN,NaN
NGRIKMRLVSRRRJ-UHFFFAOYSA-N,NN=C(C(=O)c1ccccc1O)c1[nH]ccc1,NN=C(C(=O)c1ccccc1O)c1[nH]ccc1,334.1,0.004906445,-0.098,-7.7197,2.19992,407.97696086049245,0.044094268,-1.0754,-7.766,69.68001,-0.992,-8.573,2.58597,NaN,NaN,273.1,NaN,256.0,NaN,NaN
KDYQXLUJLOWLRV-UHFFFAOYSA-N,N#CC(=Cc1cccc2c1cccc2)c1ccc(cc1)N(c1ccccc1)c1ccccc1,N#CC(=Cc1cccc2c1cccc2)c1ccc(cc1)N(c1ccccc1)c1ccccc1,335.1,0.564343447,-0.253,-7.3551,5.24292,337.463795333434,0.306179972,-0.4974,-7.3303,71.88135,-0.896,-8.045,4.38189,NaN,NaN,400.0,NaN,300.0,NaN,THF
TVUSGKRLKXOIST-UHFFFAOYSA-N,N#Cc1ccc(cc1)C=C(c1ccccc1)c1ccccc1,N#Cc1ccc(cc1)C=C(c1ccccc1)c1ccccc1,299.7,0.881663538,-0.3023,-8.2378,5.70918,309.4962516363047,0.537482545,-0.447,-7.9933,84.63374,-0.896,-9.276,4.95335,311.2053037380508,0.78109786,321,NaN,321,NaN,NaN
BNAVNXWGJSJUQS-UHFFFAOYSA-N,C#CCCCn1c(ccc1c1cccs1)c1cccs1,C#Cn1c(ccc1c1cccs1)c1cccs1,303.3,0.937072997,0.4464,-7.4836,1.50997,390.62444362162466,0.594577322,-0.4643,-7.1741,73.90370,-0.879,-8.519,1.72138,324.33670706369696,0.7568156383,309,NaN,309,NaN,NaN
GBLIBXUAVHTECM-UHFFFAOYSA-N,[O-][N+](=O)c1cc2C(=CC=CC=CC=c3n(c4ccccc4)c4c(n3c3ccccc3)cccc4)c3c(c2c(c1)[N+](=O)[O-])c(cc(c3)[N+](=O)[O-])[N+](=O)[O-],[O-][N+](=O)c1cc2C(=CC=CC=CC=c3n(c4ccccc4)c4c(n3c3ccccc3)cccc4)c3c(c2c(c1)[N+](=O)[O-])c(cc(c3)[N+](=O)[O-])[N+](=O)[O-],636.0,0.242741521,-1.6098,-6.7922,13.68755,1081.8865480410443,0.004669983,-3.5761,-7.2172,427.67992,-2.67,-8.037,18.04776,NaN,NaN,873,NaN,873,NaN,Toluene
UOBFQYAXVHRFEG-UHFFFAOYSA-N,COc1sc(nc1C1=C(c2sccc2OC)C(C(C1(F)F)(F)F)(F)F)c1ccccc1,COc1sc(nc1C1=C(c2sccc2OC)C(C(C1(F)F)(F)F)(F)F)c1ccccc1,318.2,0.309068249,0.0502,-7.8283,7.58500,368.56182641350676,0.223860262,-0.8693,-7.7792,363.69918,-1.215,-8.569,7.58042,NaN,NaN,525.0,8500,321.0,23000,NaN
MVXVYAKCVDQRLW-UHFFFAOYSA-N,c1cnc2c(c1)cc[nH]2,c1cnc2c(c1)cc[nH]2,259.6,0.094084604,1.0656,-8.2911,1.57220,310.8931755403803,0.201189245,-0.0153,-7.9718,20.37857,-0.383,-9.078,1.40174,NaN,NaN,347.0,NaN,237.0,NaN,NaN
FBBLOSCXOZYUSS-UHFFFAOYSA-N,COc1cccc(c1)N1C=Cc2c(S1(=O)=O)sc(c2)S(=O)(=O)N,COc1cccc(c1)N1C=Cc2c(S1(=O)=O)sc(c2)S(=O)(=O)N,290.0,0.297983496,-0.246,-8.4584,3.25973,429.90360057386846,0.002066358,-1.7888,-8.6974,301.83499,-1.592,-8.605,3.08583,NaN,NaN,519,NaN,519,NaN,NaN
ZWMOOHSEWIMWTJ-UHFFFAOYSA-N,Fc1c2oc3ccccc3oc2c(c2c1c(=O)c1c(c2=O)c(O)ccc1O)F,Fc1c2oc3ccccc3oc2c(c2c1c(=O)c1c(c2=O)c(O)ccc1O)F,391.7,0.449852235,-1.4666,-8.2806,3.64363,394.6027956890632,0.406319951,-2.3558,-8.9507,68.66229,-2.167,-9.211,2.85804,NaN,NaN,1086.9565217391305,NaN,419.0,NaN,NaN
QJRFVWJASVUKOF-UHFFFAOYSA-N,N#CC(=C1CC(C)(C)CC(=C(C#N)C#N)C1=Cc1ccc(cc1)N=NC=C1N(C)c2c(C1(C)C)cccc2)C#N,N#CC(=C1CC(C)(C)CC(=C(C#N)C#N)C1=Cc1ccc(cc1)N=NC=C1N(C)c2c(C1(C)C)cccc2)C#N,415.5,9.4273e-05,-1.4074,-7.4233,10.23445,483.5577160901079,0.021502896,-1.5116,-7.5364,193.74695,-1.733,-8.178,7.06796,NaN,NaN,429,NaN,429,NaN,THF
IZLHEZNNALKPBX-UHFFFAOYSA-N,N#CC(=Cc1cc(c(s1)C=Cc1ccc(cc1)N(c1ccccc1)c1ccccc1)C)C(=O)O,N#CC(=Cc1cc(c(s1)C=Cc1ccc(cc1)N(c1ccccc1)c1ccccc1)C)C(=O)O,391.4,2.122694247,-1.0948,-7.2395,6.00670,434.57482791974644,0.870530398,-1.6409,-7.3642,482.41623,-1.795,-8.096,5.01966,430.91961980133266,1.8324904764,517.0,NaN,0.0,NaN,NaN