inchikey,smi_pre,smi_post,lambda_sTDA (nm),f1_sTDA,lumo_dft,homo_dft,dmom_dft (D),lambda_z (nm),f1_z,lumo_z,homo_z,dmom_z (D),lumo_mopac,homo_mopac,dmom_mopac (D),lambda_tddft (nm),f1_tddft,lambda_exp_max (nm),epsilon_exp_max ,lambda_exp_min (nm),epsilon_exp_min ,solvent
PGXVRIOOHRVKLC-DTZQCDIJSA-N,O[C@@H]1[C@@H](COP(=O)(OP(=O)(OCCOC(=O)c2ccccc2N)O)O)O[C@H]([C@@H]1O)n1ccc(nc1=O)N,O[C@@H]1[C@@H](COP(=O)(OP(=O)(OCCOC(=O)c2ccccc2N)O)O)O[C@H]([C@@H]1O)n1ccc(nc1=O)N,301.7,0.168061863,0.1064,-8.3673,5.65986,347.68423557348194,0.1424843,-1.2896,-8.0049,252.29433,-1.318,-9.045,6.20171,NaN,NaN,559,NaN,559,NaN,TBAF
GIFUSRMQDPSTLX-UHFFFAOYSA-N,COC1=CSN(C=C1C1=C(C2=CN(SC=C2OC)c2ccccn2)C(C(C1(F)F)(F)F)(F)F)c1ccccn1,COC1=CSN(C=C1C1=C(C2=CN(SC=C2OC)c2ccccn2)C(C(C1(F)F)(F)F)(F)F)c1ccccn1,354.1,0.062733075,0.3673,-7.7649,7.77803,351.429133802448,0.197234934,-0.3414,-7.672,332.50654,-0.964,-7.861,7.99807,NaN,NaN,337,NaN,337,NaN,NaN
OBJXPUACENVSLZ-UHFFFAOYSA-N,COC1=CSN(C=C1C1=C(C2=CN(SC=C2OC)c2cccnc2)C(C(C1(F)F)(F)F)(F)F)c1ccccn1,COC1=CSN(C=C1C1=C(C2=CN(SC=C2OC)c2cccnc2)C(C(C1(F)F)(F)F)(F)F)c1ccccn1,360.7,0.045878139,0.133,-7.9419,6.11201,349.25126311409485,0.045949773,-0.3575,-7.7571,344.23645,-1.021,-7.912,6.05514,NaN,NaN,332,NaN,332,NaN,NaN
WLHUVFGDJMTRQX-UHFFFAOYSA-N,COC1=CSN(C=C1C1=C(C2=CN(SC=C2OC)c2ccncc2)C(C(C1(F)F)(F)F)(F)F)c1cccnc1,COC1=CSN(C=C1C1=C(C2=CN(SC=C2OC)c2ccncc2)C(C(C1(F)F)(F)F)(F)F)c1cccnc1,372.0,0.06021708,-0.0289,-8.0112,2.81155,356.9945246343325,0.151504725,-0.4548,-7.8022,346.84878,-1.191,-8.102,2.60593,NaN,NaN,335,NaN,335,NaN,NaN
PJYYBCXMCWDUAZ-JJJZTNILSA-N,CC(CC[C@H]([C@@]([C@H]1CC[C@@]2([C@]1(C)CC[C@H]1C2=CC(=O)[C@H]2[C@]1(C)C[C@H](O)[C@@H](C2)O)O)(O)C)O)C,CC(CC[C@H]([C@@]([C@H]1CC[C@@]2([C@]1(C)CC[C@H]1C2=CC(=O)[C@H]2[C@]1(C)C[C@H](O)[C@@H](C2)O)O)(O)C)O)C,NaN,NaN,NaN,NaN,NaN,NaN,NaN,NaN,Nan,NaN,NaN,NaN,NaN,NaN,NaN,409,NaN,409,NaN,NaN
NNQIJOYQWYKBOW-JWKOBGCHSA-N,O=C(N[C@@H]1C(=O)N2[C@@H]1SCC(=C2C(=O)O)C)CCC[C@H](C(=O)O)N,O=C(N[C@@H]1C(=O)N2[C@@H]1SCC(=C2C(=O)O)C)CCC[C@H](C(=O)O)N,NaN,NaN,NaN,NaN,NaN,NaN,NaN,NaN,Nan,NaN,NaN,NaN,NaN,NaN,NaN,398,NaN,398,NaN,NaN
ZOEDLCUBOBTIHG-USQSKNHBSA-N,OC[C@H]1O[C@H]([C@H]2[C@@H]1O[C@H](O2)CP(=O)(O)O)c1c[nH]c2c1[nH]cnc2=O,OC[C@H]1O[C@H]([C@H]2[C@@H]1O[C@H](O2)CP(=O)(O)O)c1c[nH]c2c1[nH]cnc2=O,257.9,0.001407188,1.4466,-8.1019,9.79202,330.4482899933467,0.001048602,-0.1262,-8.0812,131.85815,-0.112,-8.766,8.47895,NaN,NaN,354,NaN,354,NaN,NaN
VRGKDCRTYBCJTA-UHFFFAOYSA-N,O=NC=c1cccc[nH]1,O=NC=c1cccc[nH]1,688.0,0.001279608,-0.1817,-7.6169,7.21086,772.4872174797736,0.000479521,-1.507,-7.9863,67.46759,-0.942,-8.5,5.85975,NaN,NaN,596,NaN,596,NaN,NaN
SNAMTVTZDPUVRA-UHFFFAOYSA-N,OOOc1c(Cl)cc(cc1Cl)Nc1ccccc1C(=O)O,OOOc1c(Cl)cc(cc1Cl)Nc1ccccc1C(=O)O,301.4,0.4731399,0.1413,-8.0201,3.75555,348.76005177356865,0.232892316,-1.0798,-8.3908,268.82706,-1.261,-8.863,3.35686,NaN,NaN,599,NaN,599,NaN,NaN
RIRGCFBBHQEQQH-UVCRECLJSA-N,OC[C@H]1O[C@H]([C@@H]([C@@H]1O)O)n1cnc2c1ncnc2NC(Cc1ccccc1)C,OC[C@H]1O[C@H]([C@@H]([C@@H]1O)O)n1cnc2c1ncnc2NC(Cc1ccccc1)C,247.4,0.358242151,1.0063,-8.384,2.58938,307.1957344041221,0.246114299,-0.2114,-8.1905,240.73003,-0.593,-8.939,2.86831,NaN,NaN,329,NaN,329,NaN,NaN
NFBAXHOPROOJAW-UHFFFAOYSA-N,O=C1C(c2ccccc2)C(=O)c2c1cccc2,O=C1C(c2ccccc2)C(=O)c2c1cccc2,329.0,0.001229194,-0.382,-8.9557,2.83604,375.14129623450424,0.001963213,-1.3693,-8.8528,33.06345,-1.238,-9.615,2.6684,NaN,NaN,328,NaN,328,NaN,NaN
AIPDNSUIWKEXLV-UHFFFAOYSA-N,C[I]P,C[I]P,NaN,NaN,NaN,NaN,NaN,NaN,NaN,NaN,Nan,NaN,NaN,NaN,NaN,NaN,NaN,327,NaN,327,NaN,NaN
NKJZZWLREOAJGO-HODIZBBFSA-N,CCCC(=O)O[C@H](COP(=O)(O[C@H]1[C@H](O)[C@@H](O)[C@@H]([C@H]([C@H]1O)OP(=O)(O)O)O)O)COC(=O)CCC,CCCC(=O)O[C@H](COP(=O)(O[C@H]1[C@H](O)[C@@H](O)[C@@H]([C@H]([C@H]1O)OP(=O)(O)O)O)O)COC(=O)CCC,NaN,NaN,NaN,NaN,NaN,NaN,NaN,NaN,Nan,NaN,NaN,NaN,NaN,NaN,NaN,325,NaN,325,NaN,NaN
IKGXIBQEEMLURG-NVPNHPEKSA-N,Oc1cc(O)c2c(c1)oc(c(c2=O)O[C@@H]1O[C@H](CO[C@@H]2O[C@@H](C)[C@@H]([C@H]([C@H]2O)O)O)[C@H]([C@@H]([C@H]1O)O)O)c1ccc(c(c1)O)O,Oc1cc(O)c2c(c1)oc(c(c2=O)O[C@@H]1O[C@H](CO[C@@H]2O[C@@H](C)[C@@H]([C@H]([C@H]2O)O)O)[C@H]([C@@H]([C@H]1O)O)O)c1ccc(c(c1)O)O,303.0,0.478467936,-0.0937,-8.1386,5.86653,371.43258959108346,0.02723083,-1.2706,-8.4882,64.45808,-1.212,-9.14,5.79632,NaN,NaN,353,NaN,353,NaN,Water
OXGUCUVFOIWWQJ-UHFFFAOYSA-N,Oc1cc(O)c2c(c1)oc(c(c2=O)OC1OC(C)C(C(C1O)O)O)c1ccc(c(c1)O)O,Oc1cc(O)c2c(c1)oc(c(c2=O)OC1OC(C)C(C(C1O)O)O)c1ccc(c(c1)O)O,300.6,0.540357138,-0.1676,-8.1909,1.25582,363.0576820073314,0.31937748,-1.5073,-8.4775,69.83216,-1.361,-9.112,2.25925,NaN,NaN,256,NaN,256,NaN,NaN
HXLVCCRPDYIRRX-UHFFFAOYSA-N,NI,NI,NaN,NaN,NaN,NaN,NaN,NaN,NaN,NaN,Nan,NaN,NaN,NaN,NaN,NaN,NaN,256.0,NaN,256.0,NaN,NaN
FVJRBJIENDRNBE-UHFFFAOYSA-N,NCCCCCCNS(=O)(=O)c1cccc2c1cccc2,NCNS(=O)(=O)c1cccc2c1cccc2,291.1,0.092135731,0.0204,-8.6516,5.47285,312.0669479121663,0.003734694,-0.8831,-8.6834,131.31690,-1.101,-9.382,5.15154,NaN,NaN,347.71,NaN,347.71,NaN,NaN
IDEHCMNLNCJQST-UHFFFAOYSA-N,NCCCCCCNS(=O)(=O)c1cccc2c1cccc2Cl,NCNS(=O)(=O)c1cccc2c1cccc2Cl,298.8,0.121294496,-0.2224,-8.6861,4.57213,313.7251983944931,0.002898413,-1.1742,-8.9541,31.71810,-1.354,-9.477,3.77269,NaN,NaN,355.08,NaN,355.08,NaN,NaN
MPLHNVLQVRSVEE-UHFFFAOYSA-N,[O-]S(=O)(=O)c1cc(ccc1c1c2cc3CCCN4c3c(c2[o+]c2c1cc1CCCN3c1c2CCC3)CCC4)S(=O)(=O)Cl,[O-]S(=O)(=O)c1cc(ccc1c1c2cc3CCCN4c3c(c2[o+]c2c1cc1CCCN3c1c2CCC3)CCC4)S(=O)(=O)Cl,281.1,0.047283581,-0.3742,-7.4831,9.78398,506.2645912842126,0.017783394,-3.6771,-8.0759,652.40866,-1.373,-8.173,10.42923,NaN,NaN,590,NaN,590,NaN,NaN
UXWOXTQWVMFRSE-UHFFFAOYSA-N,OC1C=CC=CCNC(=O)C2=CCC(OC(=O)C(NC(=O)c3nc(CC(C1)O)oc3)CS2)C,OC1C=CC=CCNC(=O)C2=CCC(OC(=O)C(NC(=O)c3nc(CC(C1)O)oc3)CS2)C,NaN,NaN,NaN,NaN,NaN,NaN,NaN,NaN,Nan,NaN,NaN,NaN,NaN,NaN,NaN,590,NaN,590,NaN,NaN
HCIIFBHDBOCSAF-UHFFFAOYSA-N,CCC1=C(CC)C2=Cc3[nH]c(c(c3CC)CC)C=C3N=C(C=c4[nH]c(=CC1=N2)c(CC)c4CC)C(=C3CC)CC,CCC1=C(CC)C2=Cc3[nH]c(c(c3CC)CC)C=C3N=C(C=c4[nH]c(=CC1=N2)c(CC)c4CC)C(=C3CC)CC,627.7,0.006896798,-0.7735,-6.5579,0.02285,603.3294326301881,0.089086832,-1.0931,-6.2879,3.54986,-1.348,-7.471,2.27351,NaN,NaN,400,NaN,400,NaN,NaN
GPMXAXPYECUHBI-UHFFFAOYSA-N,COC(=O)CCc1c2=Cc3[nH]c(c(c3CCC(=O)OC)C)C=c3[nH]c(=Cc4[nH]c(C=c(c1C)[nH]2)c(C)c4C=C)c(c3C=C)C,COC(=O)CCc1c2=Cc3[nH]c(c(c3CCC(=O)OC)C)C=c3[nH]c(=Cc4[nH]c(C=c(c1C)[nH]2)c(C)c4C=C)c(c3C=C)C,790.4,0.000904959,-0.5138,-5.6926,2.69067,516.1706844525547,0.016417861,-0.5691,-6.3168,184.06537,-1.153,-7.378,2.17125,NaN,NaN,425,NaN,425,NaN,NaN
ZNDZZIFYGYFAIZ-UHFFFAOYSA-O,OCCCCCCNC(=O)c1ccc(c(c1)C(=O)O)c1c2cc(C)c(cc2[o+]c2c1cc(C)c(c2)NCC)NCC,OCCCCCCNC(=O)c1ccc(c(c1)C(=O)O)c1c2cc(C)c(cc2[o+]c2c1cc(C)c(c2)NCC)NCC,NaN,NaN,NaN,NaN,NaN,NaN,NaN,NaN,Nan,NaN,NaN,NaN,NaN,NaN,NaN,540,NaN,540,NaN,NaN
IUSCIWAUZVKPPY-UHFFFAOYSA-N,ClC(=NNc1ccccc1)c1ccccc1,ClC(=NNc1ccccc1)c1ccccc1,293.9,0.901272341,0.3945,-7.6096,0.30351,325.07655586131006,0.539699473,-0.6863,-8.0351,113.90811,-0.668,-8.698,1.15326,NaN,NaN,513,NaN,513,NaN,NaN
PTSALSVLOQYJNO-ZDUSSCGKSA-N,COC(=O)C1=C(NC(=S)N[C@H]1C=Cc1ccccc1)C(C)C,COC(=O)C1=C(NC(=S)N[C@H]1C=Cc1ccccc1)C(C)C,289.6,0.019247534,0.2146,-8.1303,5.15515,398.7912460775287,2.091e-06,-0.8789,-8.3186,148.21128,-0.87,-8.636,5.33638,NaN,NaN,254,NaN,254,NaN,NaN
XORHSTXBTDRMES-AWEZNQCLSA-N,CCOC(=O)C1=C(NC(=S)N[C@H]1C=Cc1ccccc1)C(C)C,CCOC(=O)C1=C(NC(=S)N[C@H]1C=Cc1ccccc1)C(C)C,290.1,0.019280493,0.2242,-8.1218,5.33381,398.9195572892653,3.0208e-05,-0.904,-8.2144,172.53483,-0.827,-8.61,5.52164,NaN,NaN,254,NaN,254,NaN,NaN
UYXFYWBJQZPFDA-ZDUSSCGKSA-N,COC(=O)C1=C(NC(=S)N[C@H]1C=Cc1ccc(cc1)F)C(C)C,COC(=O)C1=C(NC(=S)N[C@H]1C=Cc1ccc(cc1)F)C(C)C,289.6,0.014366071,0.1746,-8.1705,5.19873,401.7634426620339,5.426e-06,-1.0632,-8.377,108.15304,-0.966,-8.716,5.10186,NaN,NaN,254,NaN,254,NaN,NaN
CIJDGRZUJKXCNG-ZDUSSCGKSA-N,COC(=O)C1=C(NC(=S)N[C@H]1C=Cc1ccc(cc1)F)C(C)(C)C,COC(=O)C1=C(NC(=S)N[C@H]1C=Cc1ccc(cc1)F)C(C)(C)C,282.7,0.00264169,0.288,-8.1045,5.10339,397.7677202614811,0.000194615,-0.7636,-8.4486,126.80797,-0.845,-8.644,4.88804,NaN,NaN,254,NaN,254,NaN,NaN
KZQCORQTVBOAFE-AWEZNQCLSA-N,CCOC(=O)C1=C(NC(=S)N[C@H]1C=Cc1ccc(cc1)F)C(C)C,CCOC(=O)C1=C(NC(=S)N[C@H]1C=Cc1ccc(cc1)F)C(C)C,289.7,0.015699558,0.1923,-8.1658,5.31624,400.8541817184082,2.9641e-05,-1.029,-8.3643,126.29891,-0.927,-8.688,5.06112,NaN,NaN,254,NaN,254,NaN,NaN
MBRHFFMMRAQOIO-ZDUSSCGKSA-N,COC(=O)C1=C(NC(=S)N[C@H]1C=Cc1ccc(cc1)Cl)C(C)C,COC(=O)C1=C(NC(=S)N[C@H]1C=Cc1ccc(cc1)Cl)C(C)C,290.3,0.01627264,0.0757,-8.1929,5.28026,401.11355032514933,2.604e-06,-1.0132,-8.552,162.18937,-0.986,-8.729,5.15294,NaN,NaN,254,NaN,254,NaN,NaN
QYBNAUHQYUHYIO-ZDUSSCGKSA-N,COC(=O)C1=C(NC(=S)N[C@H]1C=Cc1ccc(cc1)Cl)C(C)(C)C,COC(=O)C1=C(NC(=S)N[C@H]1C=Cc1ccc(cc1)Cl)C(C)(C)C,285.2,0.008528596,0.1332,-8.1362,5.14294,398.27882558786916,0.000174767,-0.8017,-8.5275,186.33997,-0.895,-8.659,4.85467,NaN,NaN,254,NaN,254,NaN,NaN
XYEIFLDSWWZIGB-AWEZNQCLSA-N,CCOC(=O)C1=C(NC(=S)N[C@H]1C=Cc1ccc(cc1)Cl)C(C)C,CCOC(=O)C1=C(NC(=S)N[C@H]1C=Cc1ccc(cc1)Cl)C(C)C,290.7,0.022112522,0.1089,-8.1855,5.43243,401.5032331784445,1.9441e-05,-1.065,-8.4636,166.95453,-0.956,-8.701,5.01538,NaN,NaN,254,NaN,254,NaN,NaN
AXGFJJKGZDVFJV-ZDUSSCGKSA-N,COC(=O)C1=C(NC(=S)N[C@H]1C=Cc1ccc(cc1)Br)C(C)C,COC(=O)C1=C(NC(=S)N[C@H]1C=Cc1ccc(cc1)Br)C(C)C,291.9,0.022763782,0.0665,-8.1932,5.29857,403.5943958512489,0.000526799,-1.1773,-8.4283,383.29010,-1.068,-8.757,3.67742,NaN,NaN,254,NaN,254,NaN,NaN
NXGNYUAKJXPXAF-AWEZNQCLSA-N,CCOC(=O)C1=C(NC(=S)N[C@H]1C=Cc1ccc(cc1)Br)C(C)C,CCOC(=O)C1=C(NC(=S)N[C@H]1C=Cc1ccc(cc1)Br)C(C)C,290.3,0.011656978,-0.0125,-8.239,3.84125,404.9124702988363,3.4743e-05,-1.1834,-8.5066,386.78442,-1.052,-8.73,3.71249,NaN,NaN,254,NaN,254,NaN,NaN
OHTUJIPKWFNLOY-ZDUSSCGKSA-N,COC(=O)C1=C(NC(=S)N[C@H]1C=Cc1ccc(cc1)C(F)(F)F)C(C)C,COC(=O)C1=C(NC(=S)N[C@H]1C=Cc1ccc(cc1)C(F)(F)F)C(C)C,291.5,0.019077938,-0.0493,-8.3187,5.88334,403.3318100374225,6.896e-06,-1.1397,-8.6002,240.91435,-1.138,-8.815,5.79119,NaN,NaN,254,NaN,254,NaN,NaN
RUKWXWAGVMMELN-ZDUSSCGKSA-N,COC(=O)C1=C(NC(=S)N[C@H]1C=Cc1ccc(cc1)C(F)(F)F)C(C)(C)C,COC(=O)C1=C(NC(=S)N[C@H]1C=Cc1ccc(cc1)C(F)(F)F)C(C)(C)C,286.2,0.016853054,-0.0933,-8.2122,5.38609,398.9195572892653,9.1099e-05,-0.8617,-8.5893,272.18677,-1.172,-8.745,5.2066,NaN,NaN,254,NaN,254,NaN,NaN
LXJMNDGVVGKTKG-AWEZNQCLSA-N,CCOC(=O)C1=C(NC(=S)N[C@H]1C=Cc1ccc(cc1)C(F)(F)F)C(C)C,CCOC(=O)C1=C(NC(=S)N[C@H]1C=Cc1ccc(cc1)C(F)(F)F)C(C)C,291.2,0.020687317,-0.0528,-8.2942,6.04256,402.4154443541177,8.445e-06,-1.0938,-8.5877,266.41779,-1.105,-8.788,5.95611,NaN,NaN,254,NaN,254,NaN,NaN
IMXISQYHVNOPRQ-ZDUSSCGKSA-N,COC(=O)C1=C(NC(=S)N[C@H]1C=Cc1ccc(cc1)[N+](=O)[O-])C(C)C,COC(=O)C1=C(NC(=S)N[C@H]1C=Cc1ccc(cc1)[N+](=O)[O-])C(C)C,317.4,0.000167919,-0.7535,-8.4134,7.01103,421.8584498315878,0.001321921,-2.4769,-8.8293,137.54331,-1.531,-8.884,6.79571,NaN,NaN,254,NaN,254,NaN,NaN
QIKTXBKZPODYGO-ZDUSSCGKSA-N,COC(=O)C1=C(NC(=S)N[C@H]1C=Cc1ccc(cc1)[N+](=O)[O-])C(C)(C)C,COC(=O)C1=C(NC(=S)N[C@H]1C=Cc1ccc(cc1)[N+](=O)[O-])C(C)(C)C,317.3,0.00043384,-0.8601,-8.3116,6.24811,422.5773633452749,4.2627e-05,-2.5674,-8.7691,161.03568,-1.503,-8.811,5.72493,NaN,NaN,254,NaN,254,NaN,NaN
GQVQSQDCAYNCBE-AWEZNQCLSA-N,CCOC(=O)C1=C(NC(=S)N[C@H]1C=Cc1ccc(cc1)[N+](=O)[O-])C(C)C,CCOC(=O)C1=C(NC(=S)N[C@H]1C=Cc1ccc(cc1)[N+](=O)[O-])C(C)C,317.1,8.983e-05,-0.7171,-8.3975,7.33750,421.7149605629376,0.000490177,-2.4788,-8.8198,166.45032,-1.508,-8.858,6.88405,NaN,NaN,254,NaN,254,NaN,NaN
LTEIWZZIAFJCRG-AWEZNQCLSA-N,COC(=O)C1=C(NC(=S)N[C@H]1C=Cc1ccc(cc1)C)C(C)C,COC(=O)C1=C(NC(=S)N[C@H]1C=Cc1ccc(cc1)C)C(C)C,288.5,0.009822223,0.2886,-8.0644,5.31374,399.3049868132163,1.0681e-05,-0.9256,-8.0567,184.78355,-0.831,-8.601,5.59478,NaN,NaN,254,NaN,254,NaN,NaN
ASXZETFZYSOAOT-AWEZNQCLSA-N,COC(=O)C1=C(NC(=S)N[C@H]1C=Cc1ccc(cc1)C)C(C)(C)C,COC(=O)C1=C(NC(=S)N[C@H]1C=Cc1ccc(cc1)C)C(C)(C)C,281.8,0.000354063,0.3842,-7.998,5.83436,395.2317449968239,0.000257201,-0.5964,-8.1597,182.14795,-0.674,-8.529,5.91246,NaN,NaN,254,NaN,254,NaN,NaN
WIZJHUIMENAGIX-HNNXBMFYSA-N,CCOC(=O)C1=C(NC(=S)N[C@H]1C=Cc1ccc(cc1)C)C(C)C,CCOC(=O)C1=C(NC(=S)N[C@H]1C=Cc1ccc(cc1)C)C(C)C,289.7,0.011446405,0.2647,-8.0279,5.38645,398.5348711202303,2.7049e-05,-0.8853,-8.0469,205.15901,-0.785,-8.575,5.84653,NaN,NaN,254,NaN,254,NaN,NaN
KXKKWHIKEQNXHG-AWEZNQCLSA-N,COc1ccc(cc1)C=C[C@@H]1NC(=S)NC(=C1C(=O)OC)C(C)C,COc1ccc(cc1)C=C[C@@H]1NC(=S)NC(=C1C(=O)OC)C(C)C,290.9,0.007082967,0.3218,-7.8395,5.17498,399.43362888371024,3.0806e-05,-0.9503,-7.987,125.60451,-0.822,-8.583,4.97203,NaN,NaN,254,NaN,254,NaN,NaN
YKNWVPWZLWGEGB-HNNXBMFYSA-N,CCOC(=O)C1=C(NC(=S)N[C@H]1C=Cc1ccc(cc1)OC)C(C)C,CCOC(=O)C1=C(NC(=S)N[C@H]1C=Cc1ccc(cc1)OC)C(C)C,290.0,0.008021708,0.351,-7.8392,5.43331,398.66301738104073,3.4703e-05,-0.9052,-8.0139,148.78084,-0.778,-8.566,5.20578,NaN,NaN,254,NaN,254,NaN,NaN
QHOKKIZHUMCIIU-ZDUSSCGKSA-N,COC(=O)C1=C(NC(=O)N[C@H]1C=Cc1ccccc1)C(C)C,COC(=O)C1=C(NC(=O)N[C@H]1C=Cc1ccccc1)C(C)C,257.6,0.495193399,0.5557,-8.2978,4.14121,319.3000216469319,0.278431886,-0.6858,-8.2031,78.22319,-0.376,-9.248,3.83784,NaN,NaN,254,NaN,254,NaN,NaN
NDMHFRUONZEHQB-RBSFLKMASA-N,COC(=O)C1=C(NC(=O)N[C@H]1[C@H]1O[C@@H]1c1ccccc1)C(C)C,COC(=O)C1=C(NC(=O)N[C@H]1[C@H]1O[C@@H]1c1ccccc1)C(C)C,243.6,0.302806557,0.7348,-8.7302,5.64859,309.5735291023812,0.215769714,-0.8404,-8.8774,101.88141,-0.51,-9.425,3.03239,NaN,NaN,254,NaN,254,NaN,NaN
MLKRLNBWUFOKEX-UHFFFAOYSA-N,Cc1ccc2c(c1)c(=O)occ2,Cc1ccc2c(c1)c(=O)occ2,277.8,0.097935496,0.3794,-8.4723,4.42769,332.13018592419945,0.137004555,-0.8021,-8.4271,83.69233,-0.791,-9.119,3.92236,NaN,NaN,324,NaN,324,NaN,NaN
LFSNCIHMGFRAHF-UHFFFAOYSA-N,O=c1occc2c1cccc2C(F)(F)F,O=c1occc2c1cccc2C(F)(F)F,271.0,0.081299154,-0.0465,-9.0413,1.91505,323.4651667245073,0.130873187,-1.2454,-9.0182,81.29627,-1.352,-9.823,1.00736,NaN,NaN,317,NaN,317,NaN,NaN
XEOUAFJUGBJKHW-UHFFFAOYSA-N,Cc1ccc2c(c1)c(=O)scc2,Cc1ccc2c(c1)c(=O)scc2,295.6,0.123763612,0.0881,-8.2968,4.17113,331.95233843508345,0.144103248,-0.8994,-8.4534,129.02686,-1.055,-8.778,4.15353,NaN,NaN,349,NaN,349,NaN,NaN
VAGSVSGGZLTFBN-UHFFFAOYSA-N,O=c1sccc2c1cccc2C(F)(F)F,O=c1sccc2c1cccc2C(F)(F)F,291.6,0.126464442,-0.298,-8.7823,1.51693,350.63404526443344,0.000163439,-1.321,-9.049,69.05245,-1.571,-9.268,0.89341,NaN,NaN,343,NaN,343,NaN,NaN
FGYQHPPTPAQSJO-HNNXBMFYSA-N,O=C1OC[C@@H](N1)Cc1ccc(cc1)OCc1ccccc1,O=C1OC[C@@H](N1)Cc1ccc(cc1)OCc1ccccc1,245.5,0.042833332,1.2708,-8.5569,5.93324,281.91041019896244,0.030024614,0.2882,-8.717,174.85904,-0.195,-9.17,5.99941,NaN,NaN,254,NaN,254,NaN,NaN
OJKCYERWEGKEIS-JTQLQIEISA-N,O=C1CC[C@H](O1)Cc1ccccc1,O=C1CC[C@H](O1)Cc1ccccc1,232.6,0.003030955,1.4783,-9.2609,4.41296,281.5263360706259,0.001284634,0.2462,-8.8689,67.61762,-0.043,-9.813,4.62488,NaN,NaN,214,NaN,214,NaN,NaN
NBIIXXVUZAFLBC-UHFFFAOYSA-K,[O-]P(=O)([O-])[O-],[O-]P(=O)([O-])[O-],NaN,NaN,NaN,NaN,NaN,NaN,NaN,NaN,Nan,NaN,NaN,NaN,NaN,NaN,NaN,0,NaN,0,NaN,NaN
NQBARXGSXIAIJK-UHFFFAOYSA-N,CC1N2C(CC(c3c1cccc3)(C)C)c1c(C2=O)c(ccc1)C(=O)O,CC1N2C(CC(c3c1cccc3)(C)C)c1c(C2=O)c(ccc1)C(=O)O,259.7,0.003352329,-0.0202,-9.2711,9.33767,309.4962516363047,0.009724118,-1.2471,-8.8435,195.08377,-0.819,-9.329,5.69325,NaN,NaN,254,NaN,254,NaN,NaN
WCERJEZPIONOJU-GEAVMAKYSA-N,COc1cc(OC)c(cc1C1C(C)[C@H]([C@H]1c1cc(OC)c(cc1OC)OC)C)OC,COc1cc(OC)c(cc1C1C(C)[C@H]([C@H]1c1cc(OC)c(cc1OC)OC)C)OC,257.4,0.216464331,1.8312,-7.4927,1.66165,300.6406362888062,0.031378296,0.6008,-7.9712,79.25630,0.297,-8.149,1.82014,NaN,NaN,254,NaN,254,NaN,NaN
OOGQMJLIYCGHLQ-UHFFFAOYSA-N,Fc1ccc(cc1)c1nc(Br)cnc1N,Fc1ccc(cc1)c1nc(Br)cnc1N,299.5,0.34370045,0.1308,-8.2778,3.00075,344.59199112146655,0.351243054,-0.8048,-8.3499,218.69628,-1.043,-9.004,3.42627,NaN,NaN,225,NaN,225,NaN,NaN
RKWWVPIMCCTJHE-UHFFFAOYSA-N,Brc1cnc(c(n1)c1ccc(cc1)C(F)(F)F)N,Brc1cnc(c(n1)c1ccc(cc1)C(F)(F)F)N,303.4,0.358747841,-0.2066,-8.4914,3.12780,345.35988413789323,0.349794863,-0.9232,-8.4644,158.43367,-1.344,-9.174,3.98179,NaN,NaN,225,NaN,225,NaN,NaN
UKCMRYLUHFUALE-UHFFFAOYSA-N,Cc1ccc(cc1)c1nc(Br)cnc1N,Cc1ccc(cc1)c1nc(Br)cnc1N,300.4,0.374666078,0.2626,-8.1195,3.97644,344.4005511263991,0.36485058,-0.5834,-8.1081,337.71707,-0.797,-8.793,4.52578,NaN,NaN,225,NaN,225,NaN,NaN
UZSHZSKPUZBMRE-UHFFFAOYSA-N,Brc1cnc(c(n1)c1ccccc1)N,Brc1cnc(c(n1)c1ccccc1)N,299.9,0.330167244,0.1883,-8.2198,3.61391,343.35142178206496,0.354250198,-0.6223,-8.1983,282.75855,-0.863,-8.867,4.07679,NaN,NaN,225,NaN,225,NaN,NaN
ZHWYHVYXEQYEQV-UHFFFAOYSA-N,Brc1cnc(c(n1)Cc1ccccc1)N,Brc1cnc(c(n1)Cc1ccccc1)N,279.3,0.200634332,0.5759,-8.3541,3.88790,337.1884645240785,0.303167574,-0.5709,-8.234,324.59167,-0.671,-8.929,3.85042,NaN,NaN,225,NaN,225,NaN,NaN
PXSUYHYXMYNOGE-UHFFFAOYSA-N,CCOC(=O)CCCOc1ccc(cc1)Cc1nc(Br)cnc1N,CCOC(=O)CCCOc1ccc(cc1)Cc1nc(Br)cnc1N,279.7,0.231791217,0.5267,-8.3651,3.29294,336.27393112423016,0.264162607,-0.6116,-8.2807,434.61763,-0.646,-8.899,4.29958,NaN,NaN,215,NaN,215,NaN,NaN
PSQONLVOMXMHNA-UHFFFAOYSA-N,CCOC(=O)CCC#Cc1nc(Br)cnc1N,CCOC(=O)CCC#Cc1nc(Br)cnc1N,NaN,NaN,NaN,NaN,NaN,NaN,NaN,NaN,Nan,NaN,NaN,NaN,NaN,NaN,NaN,215,NaN,215,NaN,NaN
BPJGQCQPWISIBL-UHFFFAOYSA-N,Fc1ccc(cc1)c1cnc(c(n1)c1ccc(cc1)F)N,Fc1ccc(cc1)c1cnc(c(n1)c1ccc(cc1)F)N,302.7,0.379177452,0.3194,-7.8966,2.72614,360.9438090407676,0.451223188,-0.6641,-7.8915,40.12265,-0.949,-8.834,3.27265,NaN,NaN,225,NaN,225,NaN,NaN
HGCNWVUTGHDTIV-UHFFFAOYSA-N,Nc1ncc(nc1c1ccc(cc1)C(F)(F)F)c1ccc(cc1)C(F)(F)F,Nc1ncc(nc1c1ccc(cc1)C(F)(F)F)c1ccc(cc1)C(F)(F)F,304.3,0.439681712,-0.1342,-8.3061,4.32767,363.8033990771821,0.44622871,-0.8856,-8.0879,158.58635,-1.363,-9.219,5.25944,NaN,NaN,225,NaN,225,NaN,NaN
HSQBEPRBEKVQQK-UHFFFAOYSA-N,Cc1ccc(cc1)c1cnc(c(n1)c1ccc(cc1)C)N,Cc1ccc(cc1)c1cnc(c(n1)c1ccc(cc1)C)N,305.2,0.439606902,0.5424,-7.6176,1.81333,364.98144953047887,0.47075488,-0.2849,-7.4619,67.09823,-0.571,-8.403,2.16701,NaN,NaN,225,NaN,225,NaN,NaN
SPFKFJFNQTWPHI-UHFFFAOYSA-N,Nc1ncc(nc1c1ccccc1)c1ccccc1,Nc1ncc(nc1c1ccccc1)c1ccccc1,301.6,0.382644703,0.4512,-7.7988,1.93501,360.10513623439925,0.456293535,-0.3491,-7.6151,41.62008,-0.656,-8.588,2.27321,NaN,NaN,225,NaN,225,NaN,NaN
RBCIHLRZBWTUMO-UHFFFAOYSA-N,Fc1ccc(cc1)c1nc(cnc1N)c1ccc(cc1)O[Si](C(C)(C)C)(C)C,Fc1ccc(cc1)c1nc(cnc1N)c1ccc(cc1)O[Si](C(C)(C)C)(C)C,308.3,0.405705436,0.4529,-7.5733,1.29292,367.2517725281507,0.437873473,-0.4186,-7.5231,234.03213,-0.696,-8.355,1.51867,NaN,NaN,225,NaN,225,NaN,NaN
IHMBHACUFLUTRG-UHFFFAOYSA-N,Nc1ncc(nc1c1ccc(cc1)C(F)(F)F)c1ccc(cc1)O[Si](C(C)(C)C)(C)C,Nc1ncc(nc1c1ccc(cc1)C(F)(F)F)c1ccc(cc1)O[Si](C(C)(C)C)(C)C,314.0,0.397778143,0.1041,-7.6728,2.08634,368.0148364663213,0.436234289,-0.5301,-7.6058,492.77316,-1.03,-8.5,3.39813,NaN,NaN,225,NaN,225,NaN,NaN
QSIUDQUYYNPCRF-UHFFFAOYSA-N,Cc1ccc(cc1)c1nc(cnc1N)c1ccc(cc1)O[Si](C(C)(C)C)(C)C,Cc1ccc(cc1)c1nc(cnc1N)c1ccc(cc1)O[Si](C(C)(C)C)(C)C,308.5,0.427661618,0.5861,-7.4326,2.32877,364.874038862577,0.456352693,-0.2102,-7.3752,84.43169,-0.453,-8.222,2.09251,NaN,NaN,225,NaN,225,NaN,NaN
XBMXTHKSQPWACO-UHFFFAOYSA-N,Nc1ncc(nc1c1ccccc1)c1ccc(cc1)O[Si](C(C)(C)C)(C)C,Nc1ncc(nc1c1ccccc1)c1ccc(cc1)O[Si](C(C)(C)C)(C)C,308.7,0.392070998,0.5116,-7.485,1.79371,365.5194528464141,0.450622971,-0.249,-7.3987,99.33009,-0.52,-8.249,1.42709,NaN,NaN,225,NaN,225,NaN,NaN
XHMMCVOULPKTGN-UHFFFAOYSA-N,CCOC(=O)CCCOc1ccc(cc1)Cc1nc(cnc1N)c1ccc(cc1)O[Si](C(C)(C)C)(C)C,CCOC(=O)CCCOc1ccc(cc1)Cc1nc(cnc1N)c1ccc(cc1)O[Si](C(C)(C)C)(C)C,286.2,0.450573794,0.7989,-7.6385,1.72855,357.61234036776364,0.447250165,-0.2294,-7.4808,211.46595,-0.405,-8.263,1.11003,NaN,NaN,215,NaN,215,NaN,NaN
GSSJTCVTYOUDIH-UHFFFAOYSA-N,CCOC(=O)CCC#Cc1nc(cnc1N)c1ccc(cc1)O[Si](C(C)(C)C)(C)C,CCOC(=O)CCC#Cc1nc(cnc1N)c1ccc(cc1)O[Si](C(C)(C)C)(C)C,319.8,0.355659787,0.5202,-7.3431,3.04830,383.25872768316435,0.436171228,-0.1658,-7.1115,191.44227,-0.403,-7.997,3.4373,NaN,NaN,215,NaN,215,NaN,NaN
LAVXSGZTIGIJCP-UHFFFAOYSA-N,CCOC(=O)CCCOc1ccc(cc1)CC(=O)C(OCC)OCC,CCOC(=O)CCCOc1ccc(cc1)CC(=O)C(OCC)OCC,279.6,0.004519295,1.3098,-8.2539,4.37006,346.6150360791268,0.001318786,0.0885,-8.5574,57.03889,0.123,-8.843,3.1287,NaN,NaN,254.0,NaN,220.0,NaN,NaN