inchikey,smi_pre,smi_post,lambda_sTDA (nm),f1_sTDA,lumo_dft,homo_dft,dmom_dft (D),lambda_z (nm),f1_z,lumo_z,homo_z,dmom_z (D),lumo_mopac,homo_mopac,dmom_mopac (D),lambda_tddft (nm),f1_tddft,lambda_exp_max (nm),epsilon_exp_max ,lambda_exp_min (nm),epsilon_exp_min ,solvent
GXUHLPBELGUEAF-UHFFFAOYSA-N,Oc1ccccc1c1[nH]c2c(n1)c1ccc3c(c1cc2)cccc3,Oc1ccccc1c1[nH]c2c(n1)c1ccc3c(c1cc2)cccc3,310.0,0.605958663,0.1902,-7.6759,3.66883,380.0864451425618,0.680840668,-0.6903,-7.3219,70.03864,-1.023,-8.496,3.69179,NaN,NaN,368,NaN,368,NaN,DMSO
DGCJBQCJYXCPBE-UHFFFAOYSA-N,Clc1ccc(cc1)C#Cc1c2cccc3c2c(c2=C(c4c(c12)cccc4)c1ccccc1)ccc3,Clc1ccc(cc1)C#Cc1c2cccc3c2c(c2=C(c4c(c12)cccc4)c1ccccc1)ccc3,474.0,0.322225978,-1.1378,-7.1628,1.71979,486.4032891545848,0.459044123,-1.3763,-6.995,343.24394,-1.783,-8.196,2.2072,NaN,NaN,259.0,NaN,241.0,NaN,NaN
PTDRAWRUJPDSEE-UHFFFAOYSA-N,Cc1ccc(cc1)C(=O)On1c(=O)c2cccc3c2c(c1=S)ccc3,Cc1ccc(cc1)C(=O)On1c(=O)c2cccc3c2c(c1=S)ccc3,405.7,0.000556829,-1.2152,-8.5486,2.60979,543.3137528724964,0.000316669,-1.783,-8.5197,54.86738,-1.889,-8.693,2.33548,NaN,NaN,466.0,NaN,390.0,NaN,NaN
XYNDZPUBUTWLSZ-UHFFFAOYSA-N,N#Cc1ccc(cc1)n1ccc2c1nc(nc2c1ccccc1)c1ccc(cc1)c1ccccc1,N#Cc1ccc(cc1)n1ccc2c1nc(nc2c1ccccc1)c1ccc(cc1)c1ccccc1,297.8,0.932328064,-0.1992,-8.0512,5.22501,334.3694671130088,0.717284518,-0.627,-7.7481,120.00916,-1.365,-8.943,4.45391,303.9498737693105,0.7978994535,332.0,NaN,280.0,NaN,NaN
HHUQTTUUMVMLDU-UHFFFAOYSA-N,O=C1C(=Cc2cc3CCCN4c3c(c2)CCC4)Oc2c1cccc2,O=C1C(=Cc2cc3CCCN4c3c(c2)CCC4)Oc2c1cccc2,340.8,1.253039626,-0.2823,-6.9868,6.12406,369.44040049315754,0.071532406,-0.9852,-7.6035,132.19713,-0.932,-7.831,5.04687,374.8577264073755,0.9821047148,503,NaN,503,NaN,Methanol
NRKZMKCXYTXXDW-UHFFFAOYSA-N,Cc1ccn2c(c1)c(C(=O)c1ccccc1C(=O)O)c1c2C(=O)c2c(C1=O)cccc2,Cc1ccn2c(c1)c(C(=O)c1ccccc1C(=O)O)c1c2C(=O)c2c(C1=O)cccc2,383.5,0.148045483,-1.0954,-8.0916,2.07456,512.7551629673435,0.195293428,-1.9957,-7.7971,32.19719,-1.583,-8.764,2.85011,NaN,NaN,504.0,6958,479.0,6127,DMF
RDVXPHSOVKZCBJ-UHFFFAOYSA-N,c1ccc2c(c1)c(c1cc(cc(c1)c1c3ccccc3cc3c1cccc3)c1c3ccccc3cc3c1cccc3)c1c(c2)cccc1,c1ccc2c(c1)c(c1cc(cc(c1)c1c3ccccc3cc3c1cccc3)c1c3ccccc3cc3c1cccc3)c1c(c2)cccc1,359.5,0.367924491,-0.1667,-7.3655,0.04188,380.66993676850984,0.411384129,-0.6969,-7.1525,0.57809,-1.123,-8.305,0.00214,NaN,NaN,389,NaN,389,NaN,NaN
RNKFZVFXCPAWNK-UHFFFAOYSA-N,CCOC(=O)c1cc(n2c1cccn2)C(=O)c1ccc(cc1)C,CCOC(=O)c1cc(n2c1cccn2)C(=O)c1ccc(cc1)C,325.4,0.074495497,-0.0892,-8.2962,3.72500,390.25558201291676,0.17930325,-1.3203,-8.2203,95.53621,-1.186,-9.307,4.56177,NaN,NaN,437.0,NaN,329.0,NaN,Cyclohexane
FKCCCLXSPFKLDR-SAMCEJJXSA-N,O[C@H]1C(OC[C@]1(O)CO)n1cc(F)c(=O)[nH]c1=O,O[C@H]1C(OC[C@]1(O)CO)n1cc(F)c(=O)[nH]c1=O,240.1,0.285080315,0.5813,-9.1361,4.37273,310.0380055151379,0.000554107,-1.273,-9.8546,69.74576,-1.023,-10.053,2.08717,NaN,NaN,268,NaN,268,NaN,NaN
PHPHUWINNCXODF-BAGYTPMASA-N,CC[C@H]1[C@]([C@@]1(C(=O)OC)c1ccc(cc1)Br)(O[Si](C)(C)C)c1ccccc1,CC[C@H]1[C@]([C@@]1(C(=O)OC)c1ccc(cc1)Br)(O[Si](C)(C)C)c1ccccc1,236.6,0.065233748,1.3234,-8.6409,2.65796,280.063696420835,0.022646432,0.0153,-8.7855,448.66546,-0.159,-9.175,4.04179,NaN,NaN,NaN,NaN,NaN,NaN,NaN
LPSLDLRLXRZHSO-UHFFFAOYSA-N,COc1c2ccccc2c(c2c1c1cccc(c1n2C)OC)OC,COc1c2ccccc2c(c2c1c1cccc(c1n2C)OC)OC,347.4,0.116951445,0.3918,-7.0375,1.78581,363.1640257923364,0.077281531,-0.2942,-7.198,18.05470,-0.728,-7.585,2.93153,NaN,NaN,409.0,186000.0,282.0,10300.0,CH 2 Cl
YPNHVQZZPXPQOS-UHFFFAOYSA-N,Oc1c2cccc1Cc1cccc(c1O)Cc1c(c(Cc3c(c(C2)ccc3)O)ccc1)O,Oc1c2cccc1Cc1cccc(c1O)Cc1c(c(Cc3c(c(C2)ccc3)O)ccc1)O,245.3,1.4244e-05,1.1326,-8.2781,1.59969,294.28957608712,1.6481e-05,0.178,-8.0728,95.53412,-0.056,-8.991,2.34782,NaN,NaN,491.0,53703.17963702533,352.0,1202.2644346174131,DMF
TUVPCAADZZWOIR-UHFFFAOYSA-N,OCC1OC(CC1O)n1c(nc2c1ncnc2N)c1ccco1,OCC1OC(CC1O)n1c(nc2c1ncnc2N)c1ccco1,273.5,0.89279532,0.396,-8.1025,5.47143,341.5542655798999,0.546262264,-0.5269,-7.8766,29.23407,-0.877,-9.049,4.06153,286.99380340556803,0.6838031633,306,NaN,306,NaN,NaN
DTOUWTJYUCZJQD-UKQWSTALSA-N,O=C(O[C@@H]1[C@@H](CO[C@@H]2O[C@@H](C)[C@@H]([C@H]([C@H]2O)O)O)O[C@H]([C@@H]([C@H]1O)O)OCCc1ccc(c(c1)O)O)C=Cc1ccc(c(c1)O)O,O=C(O[C@@H]1[C@@H](CO[C@@H]2O[C@@H](C)[C@@H]([C@H]([C@H]2O)O)O)O[C@H]([C@@H]([C@H]1O)O)OCCc1ccc(c(c1)O)O)C=Cc1ccc(c(c1)O)O,276.5,0.365241152,0.4039,-7.9881,3.54504,311.1272231003856,0.45067826,-0.8674,-8.2642,71.66178,-0.873,-8.87,3.75209,NaN,NaN,NaN,NaN,NaN,NaN,NaN
DIFIIJFBHAISAA-UHFFFAOYSA-N,N#Cc1cnn2c1nc(C)c1c2N(CC1)c1ccccc1,N#Cc1cnn2c1nc(C)c1c2N(CC1)c1ccccc1,287.1,0.418057463,0.5767,-7.8823,9.66999,379.7372079801031,0.183086145,-0.6852,-7.8368,101.33154,-0.924,-8.67,10.28218,NaN,NaN,373,NaN,373,NaN,NaN
PDZQJHPFQAVVGO-UHFFFAOYSA-N,c1ccc(cc1)N(c1ccccc1)c1ccc(cc1)c1ccc(cc1)c1ccc(s1)c1ccncn1,c1ccc(cc1)N(c1ccccc1)c1ccc(cc1)c1ccc(cc1)c1ccc(s1)c1ccncn1,327.8,1.836613449,-0.2949,-7.2437,3.87928,378.00060489482826,0.980556678,-0.8648,-7.274,347.30501,-1.332,-8.046,3.93659,NaN,NaN,385.0,NaN,289.0,NaN,MeCN
CMINDTKCHNLDLW-UHFFFAOYSA-N,OCC=C(c1ccc(cc1)F)c1ccc(cc1)F,OCC=C(c1ccc(cc1)F)c1ccc(cc1)F,246.9,0.057181291,0.8783,-8.3602,1.62817,286.2715271427006,0.02501504,-0.046,-8.3602,56.43784,-0.489,-9.547,0.7989,NaN,NaN,NaN,NaN,NaN,NaN,NaN
CZJCQYBAEAYWSF-UHFFFAOYSA-N,Oc1ccc2c(c1)c(c1ccc(cc1)F)c([nH]2)c1ccc(cc1)S(=O)(=O)N,Oc1ccc2c(c1)c(c1ccc(cc1)F)c([nH]2)c1ccc(cc1)S(=O)(=O)N,297.6,0.520840562,0.059,-7.7926,2.50286,355.76527519513246,0.406588332,-0.9028,-7.8705,218.28097,-1.188,-8.694,2.30065,NaN,NaN,236,NaN,236,NaN,NaN
XGEQHZXOMVOHFT-UHFFFAOYSA-N,NC(=S)NC(=O)c1cccc2c1cccc2,NC(=S)NC(=O)c1cccc2c1cccc2,292.4,0.156660539,-0.187,-8.4719,3.77451,399.5623538688484,5.31e-05,-0.9794,-8.5421,168.98082,-1.338,-8.713,4.99598,NaN,NaN,275.0,NaN,200.0,NaN,NaN
RGHHSNMVTDWUBI-UHFFFAOYSA-N,O=Cc1ccc(cc1)O,O=Cc1ccc(cc1)O,297.2,5.9762e-05,0.3605,-8.9398,3.40223,359.89607664877695,1.795e-06,-0.8406,-9.227,10.60493,-0.654,-9.627,2.53635,NaN,NaN,385,NaN,385,NaN,NaN
LKIZECHWCYPLSL-UHFFFAOYSA-N,COc1c2cc(OC)cc3c2c2c(c1OC)cc(cc2c(c3OC)OC)OC,COc1c2cc(OC)cc3c2c2c(c1OC)cc(cc2c(c3OC)OC)OC,341.6,0.140741207,0.1018,-7.2618,0.09065,376.73715711183127,0.014865896,-0.6818,-7.2038,0.52252,-1.093,-8.138,2.52039,NaN,NaN,399,NaN,399,NaN,DMF
QAWHTYLQIODFSD-UHFFFAOYSA-N,CCCCCCCCC1(CCCCCCCC)c2cc(ccc2c2c1cccc2)c1nnn(c1)c1ccc(cc1)OC,C1(C)c2cc(ccc2c2c1cccc2)c1nnn(c1)c1ccc(cc1)OC,291.1,1.176973538,0.4717,-7.6685,4.23225,333.64961895991297,0.805043055,-0.4632,-7.5277,140.84249,-0.839,-8.498,4.26136,288.0071383986607,1.1488582442,300,NaN,300,NaN,NaN
ARWWCDRAKCKZOE-UHFFFAOYSA-N,N#Cc1ccc2c(c1)CCc1c2c(nc2c1c1ccc(cc1CC2)C#N)c1ccc(cc1)N(C)C,N#Cc1ccc2c(c1)CCc1c2c(nc2c1c1ccc(cc1CC2)C#N)c1ccc(cc1)N(C)C,320.4,0.653246403,-0.374,-7.4713,6.39794,344.9755103102495,0.40385347,-0.8039,-7.7031,93.40369,-1.248,-8.331,5.69892,NaN,NaN,348.0,NaN,256.0,NaN,Dimethylsulfoxide
XLZJQNFUHLMHFV-UHFFFAOYSA-N,Clc1ccc(c(c1)Cl)C=Cc1ccc(cc1)c1nnc(o1)c1c2ccccc2cc2c1cccc2,Clc1ccc(c(c1)Cl)C=Cc1ccc(cc1)c1nnc(o1)c1c2ccccc2cc2c1cccc2,367.8,0.577973878,-0.6039,-7.6744,2.30174,394.3517760989302,0.510539828,-0.9965,-7.3969,504.46127,-1.576,-8.634,3.02891,NaN,NaN,NaN,NaN,NaN,NaN,NaN
JDLHYYNSRIAYSL-UHFFFAOYSA-N,Cc1ccc(c(c1)O)N=Cc1cccn1C,Cc1ccc(c(c1)O)N=Cc1cccn1C,315.4,0.826966568,0.2695,-7.5253,2.08593,369.88126015961717,0.552937647,-0.519,-7.5114,35.57364,-0.619,-8.417,1.44823,332.01454893618467,0.7467149942,355,NaN,355,NaN,NaN
WJGSFWMZHGNNOV-UHFFFAOYSA-N,Clc1ccc(cc1)c1nn(c(c1)c1nnc(o1)COc1ccc(cc1Cl)Cl)Cc1ccc(nc1)Cl,Clc1ccc(cc1)c1nn(c(c1)c1nnc(o1)COc1ccc(cc1Cl)Cl)Cc1ccc(nc1)Cl,255.8,0.594443861,0.2061,-8.4957,5.13908,334.9113949365307,0.222115515,-1.3362,-8.5311,170.68866,-1.206,-9.308,3.20922,NaN,NaN,261,41650,261,41650,DCM
FTKQBCGJDBMDHD-UHFFFAOYSA-N,[O-][N+](=O)c1ccc(cc1)c1cnc2c(c1)cc(c(c2)O)c1nc2c([nH]1)ccc(c2)[N+](=O)[O-],[O-][N+](=O)c1ccc(cc1)c1cnc2c(c1)cc(c(c2)O)c1nc2c([nH]1)ccc(c2)[N+](=O)[O-],316.5,0.001504259,-0.9134,-8.6349,9.20638,422.86561529844363,0.001095137,-2.6489,-8.4743,113.20039,-1.929,-9.56,9.22143,NaN,NaN,331.0,NaN,304.0,NaN,DMF
ONVZFCHLOZUXRP-UHFFFAOYSA-N,Clc1cccc(c1)C1=C(Nc2ccc(c(c2)C(=O)O)Cl)C(=O)NC1=O,Clc1cccc(c1)C1=C(Nc2ccc(c(c2)C(=O)O)Cl)C(=O)NC1=O,330.7,0.135705041,-0.4891,-8.5895,2.11817,388.90902887548197,0.170281605,-1.9859,-8.8531,132.58835,-1.65,-9.189,2.18853,NaN,NaN,565.0,63000.0,284.0,25500.0,NaN
LIFWPLOFXPGAJJ-UHFFFAOYSA-N,CCN(c1ccc(cc1)C=C1CCCC(=Cc2ccc(cc2)N(CC)CC)C1=O)CC,CCN(c1ccc(cc1)C=C1C(=Cc2ccc(cc2)N(CC)CC)C1=O)CC,443.6,1.757591434,-0.8353,-6.5239,6.94726,450.6877441130631,0.788908791,-1.3265,-7.1761,118.87705,-0.999,-7.618,6.46884,499.83548884998766,1.3856313875,798.0,45700.0,451.0,45700.0,NaN
IKOQVCSPRVYBLP-UHFFFAOYSA-N,c1ccc(cc1)c1nc(nnc1c1ccccc1)c1cccc(c1)c1nnc(c(n1)c1ccccc1)c1ccccc1,c1ccc(cc1)c1nc(nnc1c1ccccc1)c1cccc(c1)c1nnc(c(n1)c1ccccc1)c1ccccc1,399.2,0.012727052,-0.3451,-8.442,6.19330,423.58796858730324,0.005169391,-0.7466,-7.9614,126.61610,-1.426,-9.276,3.42104,NaN,NaN,276.0,NaN,275.0,NaN,NaN
JFIOVJDNOJYLKP-UHFFFAOYSA-N,Clc1cc(Sc2cc(Cl)cc(c2O)Cl)c(c(c1)Cl)O,Clc1cc(Sc2cc(Cl)cc(c2O)Cl)c(c(c1)Cl)O,264.6,0.149738469,0.4322,-8.5925,1.63798,285.02114575977856,0.034808338,-0.6059,-9.3067,34.27754,-1.094,-8.814,0.91467,NaN,NaN,NaN,NaN,NaN,NaN,NaN
IKFJFIMRWTWCIM-UHFFFAOYSA-N,CCOC(=O)c1cc2cc(cn2cc1c1cccs1)C(=O)c1ccccc1,CCOC(=O)c1cc2cc(cn2cc1c1cccs1)C(=O)c1ccccc1,336.9,0.107235159,-0.0674,-7.9121,3.28120,391.3642626436353,0.222440526,-0.9788,-7.7913,139.35201,-1.112,-8.854,3.29197,NaN,NaN,280,70300,280,70300,dichloromethane
DYZAFEDVNIEMEL-UHFFFAOYSA-N,Cc1sc(c(c1C1=C(c2c(C)sc(c2C)c2ccccc2)C(C(C1(F)F)(F)F)(F)F)C)c1ccccc1,Cc1sc(c(c1C1=C(c2c(C)sc(c2C)c2ccccc2)C(C(C1(F)F)(F)F)(F)F)C)c1ccccc1,262.0,0.059132747,0.3126,-8.2279,3.71601,319.0535213728864,0.17556205,-0.4141,-8.0196,406.06131,-0.905,-8.97,2.85792,NaN,NaN,575.0,NaN,266.0,NaN,NaN
CZPYGRYFQOWMQQ-UHFFFAOYSA-N,c1ccc2c(c1)cc(cc2)N=Cc1ccc(cc1)C=Nc1ccc2c(c1)cccc2,c1ccc2c(c1)cc(cc2)N=Cc1ccc(cc1)C=Nc1ccc2c(c1)cccc2,336.2,1.420694672,-0.6312,-7.8957,0.04643,359.7916378569462,0.530988555,-0.9479,-7.7382,11.59802,-1.155,-8.785,0.38368,347.64522490253324,1.3202673386,407.0,39460,291.0,29510,NaN
WLJVXDMOQOGPHL-UHFFFAOYSA-N,OC(=O)Cc1ccccc1,OC(=O)Cc1ccccc1,230.8,0.000140739,1.0485,-9.5116,5.06574,288.3353451290783,0.001685537,0.0588,-9.2738,73.98020,-0.07,-9.821,1.74953,NaN,NaN,NaN,NaN,NaN,NaN,NaN
OJDNGWSLVYCOJD-UHFFFAOYSA-N,CCC(=O)N1CC2CCCC(C1)N2CC=C(c1ccccc1)c1ccccc1,C(=O)N1CC2C(C1)N2CC=C(c1ccccc1)c1ccccc1,246.4,0.180920645,0.7936,-8.4892,5.70036,277.6801756002322,0.028153841,0.3035,-8.2124,117.50683,-0.204,-9.273,5.5341,NaN,NaN,NaN,NaN,NaN,NaN,NaN
FAICIPSJBXCWEZ-UHFFFAOYSA-N,O=C(Nc1cccc(c1)C)Nc1ccc(cc1)Oc1ncnc2c1n(C)cc2,O=C(Nc1cccc(c1)C)Nc1ccc(cc1)Oc1ncnc2c1n(C)cc2,252.9,0.603099869,1.1217,-8.0052,3.32883,309.96049601375915,0.391290897,-0.2108,-8.2041,120.96280,-0.37,-8.759,5.01365,NaN,NaN,110,NaN,110,NaN,NaN
DPJCXCZTLWNFOH-UHFFFAOYSA-N,[O-][N+](=O)c1ccccc1N,[O-][N+](=O)c1ccccc1N,312.7,0.161860195,-0.2543,-8.4507,4.63575,436.56407889261857,0.075872536,-2.3732,-8.9238,75.41417,-1.043,-9.18,5.21149,NaN,NaN,402.6,NaN,394.3,NaN,NaN
ZOOWYOBEJMRCFA-UHFFFAOYSA-N,OCCN(c1ccc(cc1)N=Nc1scc(n1)c1ccc(cc1Cl)Cl)CC,OCCN(c1ccc(cc1)N=Nc1scc(n1)c1ccc(cc1Cl)Cl)CC,443.9,0.000404629,-0.6788,-7.5745,5.01039,521.8190168581805,0.014417205,-1.5077,-8.0707,509.90173,-1.298,-8.524,5.64908,NaN,NaN,550,NaN,550,NaN,DMF
WMRVCEHBDLZXCV-UHFFFAOYSA-N,CCCCCCc1sc2c(c1c1sc(c3c1cccc3)c1cscc1)cccc2,Cc1sc2c(c1c1sc(c3c1cccc3)c1cscc1)cccc2,358.4,0.482208406,0.001,-7.2981,0.74601,471.24362753897253,0.301887071,-0.8922,-6.8864,160.68369,-1.182,-8.171,0.63156,NaN,NaN,455,NaN,455,NaN,CH 2 Cl
YYHZVOSLVSSKST-UHFFFAOYSA-N,Clc1ccc(cc1)C=C1n2cncc2COC1C(C)(C)C,Clc1ccc(cc1)C=C1n2cncc2COC1C(C)(C)C,253.5,0.428983126,0.6149,-8.4581,1.94003,293.87105571344784,0.224334338,-0.159,-8.2388,167.88781,-0.776,-9.333,2.50064,NaN,NaN,NaN,NaN,NaN,NaN,NaN
QXDYMRJJPCRTBP-UHFFFAOYSA-N,CCOC(=O)C(=C1c2ccccc2c2c1sc(c2C#N)N)C#N,CCOC(=O)C(=C1c2ccccc2c2c1sc(c2C#N)N)C#N,459.5,0.088348123,-1.4576,-8.1253,7.07768,504.4108966863452,0.123965068,-1.7426,-7.788,82.22303,-2.014,-8.615,4.89911,NaN,NaN,599.0,NaN,560.0,NaN,acetone
IWKDFAWZFVGWAH-UHFFFAOYSA-N,c1ccc2c(c1)Sc1c(N2)cc2c(c1)cccc2,c1ccc2c(c1)Sc1c(N2)cc2c(c1)cccc2,307.9,0.104448795,0.6027,-7.3865,1.99923,336.82205489134384,0.068939891,-0.1782,-7.5256,68.17482,-0.74,-7.711,1.98957,NaN,NaN,365,NaN,365,NaN,NaN
SOVFRIYVIJQIFQ-UHFFFAOYSA-N,COc1cc2c(=O)c(cn(c2cc1OC)C)C(=O)c1ccccc1Cc1ccccc1,COc1cc2c(=O)c(cn(c2cc1OC)C)C(=O)c1ccccc1Cc1ccccc1,294.6,0.020617009,0.4572,-7.9605,5.57667,383.0219289635578,0.000154772,-0.8842,-8.2659,73.60805,-0.543,-8.428,6.33478,NaN,NaN,510.0,NaN,336.0,NaN,NaN
UFRIJGUQFCVZLN-UHFFFAOYSA-N,Clc1cc(C=Nc2nc3c(s2)cccc3)c(c(c1)Cl)O,Clc1cc(C=Nc2nc3c(s2)cccc3)c(c(c1)Cl)O,337.1,0.684587029,-1.0198,-8.4819,2.91549,378.6933366081358,0.620417687,-1.7752,-8.2054,266.93963,-1.86,-9.176,3.31766,NaN,NaN,270,45200,270,45200,methanol
FPEQUMWIJMINKO-UHFFFAOYSA-N,Cc1ccc2c(c1)sc(n2)N=Nc1ccc2c1ccccc2,Cc1ccc2c(c1)sc(n2)N=Nc1ccc2c1ccccc2,495.3,0.022682372,-0.9322,-7.3869,3.48976,576.1347509549427,0.124596423,-1.5432,-7.2963,87.99387,-1.787,-8.436,3.52098,NaN,NaN,492.0,NaN,226.0,NaN,NaN
UMQNNTIVXJKXAI-UHFFFAOYSA-N,Clc1ccc2c(c1)c1cc(Cl)cc(c1[nH]2)Cl,Clc1ccc2c(c1)c1cc(Cl)cc(c1[nH]2)Cl,297.1,0.052859971,0.1836,-8.1536,2.74464,321.2025865427556,0.012513483,-0.8353,-8.7026,76.45513,-1.216,-8.896,2.79565,NaN,NaN,376.0,NaN,298.0,NaN,NaN
YBNSITIRJODWOU-UHFFFAOYSA-N,N#CC(=Cc1ccc(s1)c1ccc(cc1)N1c2ccccc2C=Cc2c1cccc2)C(=O)O,N#CC(=Cc1ccc(s1)c1ccc(cc1)N1c2ccccc2C=Cc2c1cccc2)C(=O)O,356.2,1.625672362,-0.8591,-7.5651,10.16944,422.5773633452749,0.795576592,-1.6211,-7.8738,418.88638,-1.744,-8.538,7.35142,396.1536026112389,1.3489773658,470.0,NaN,418.0,NaN,NaN
AFNZCLZTCRIXPG-UHFFFAOYSA-N,COC(=O)c1c(C(=O)c2ccc(cc2)C)n2c(c1C(=O)OC)cccn2,COC(=O)c1c(C(=O)c2ccc(cc2)C)n2c(c1C(=O)OC)cccn2,323.6,0.075112336,-0.1845,-8.4311,5.19991,390.87073898330283,0.198439881,-1.3573,-8.2598,150.82048,-1.358,-9.44,5.95334,NaN,NaN,451.0,NaN,327.0,NaN,Cyclohexane
KPVZUUKEURQNLG-UHFFFAOYSA-N,CCCCCCCCCCCCOc1cc2nc(C=Cc3ccc(cc3)c3cc(nc(c3)c3ccccn3)c3ccccn3)c(nc2cc1OCCCCCCCCCCCC)C=Cc1ccc(cc1)C,COc1cc2nc(C=Cc3ccc(cc3)c3cc(nc(c3)c3ccccn3)c3ccccn3)c(nc2cc1OC)C=Cc1ccc(cc1)C,354.7,1.406673433,-0.4729,-7.4505,2.39071,394.1010756691153,0.653326732,-0.8877,-7.4815,164.30658,-1.054,-8.37,1.811,374.3823202863769,0.9794356659,492.0,NaN,398.0,NaN,NaN
VAIIFGREXAVRGY-UHFFFAOYSA-N,COC1OC(=O)C(=C1Nc1ccc(cc1)F)Br,COC1OC(=O)C(=C1Nc1ccc(cc1)F)Br,232.7,0.24962787,0.7287,-8.6256,6.10501,323.3807991797174,0.000826644,-0.7814,-9.0662,229.25206,-0.962,-9.039,5.88474,NaN,NaN,283,NaN,283,NaN,NaN
QAXDVKBGZRMSHF-UHFFFAOYSA-N,COc1c(O)c2N(CCc2c2c1[nH]c(c2)C(=O)O)C(=O)C,COc1c(O)c2N(CCc2c2c1[nH]c(c2)C(=O)O)C(=O)C,296.4,0.154489676,0.5305,-7.5205,2.80729,354.9504678084846,0.074385113,-0.9317,-7.919,108.70786,-0.774,-8.134,3.76222,NaN,NaN,NaN,NaN,NaN,NaN,NaN
XCCRTKNCKKEWOS-UHFFFAOYSA-N,Oc1ccc(cc1)C(C1=C(O)C(=O)c2c(C1=O)cccc2)Nc1ccccc1,Oc1ccc(cc1)C(C1=C(O)C(=O)c2c(C1=O)cccc2)Nc1ccccc1,429.4,0.000988128,-1.3568,-7.5636,4.07164,453.15861990315665,0.012789347,-2.3016,-8.0843,81.98175,-1.982,-8.285,4.99497,NaN,NaN,471,2454.708915685031,471,2454.708915685031,NaN
FOTVUOSXQPXJBP-PKTZIBPZSA-N,COC(=O)[C@@]1(C[C@]1(O[Si](C(C)(C)C)(C)C)c1ccc(cc1)Br)c1ccc(cc1)Br,COC(=O)[C@@]1(C[C@]1(O[Si](C(C)(C)C)(C)C)c1ccc(cc1)Br)c1ccc(cc1)Br,240.6,0.105882815,0.9932,-8.6675,0.84682,281.3346911856221,0.021536584,-0.1233,-8.8639,230.92105,-0.519,-9.312,2.37954,NaN,NaN,NaN,NaN,NaN,NaN,NaN
VAAFTPBBFJGJIG-UHFFFAOYSA-N,CCCCCCCCCCCCOc1cc(ccc1OCCCCCCCCCCCC)c1nc2cc(ccc2nc1c1ccc(c(c1)OCCCCCCCCCCCC)OCCCCCCCCCCCC)C(=O)Oc1ccc(cc1)c1oc2c(n1)ccc(c2)OCCCC,COc1cc(ccc1OC)c1nc2cc(ccc2nc1c1ccc(c(c1)OC)OC)C(=O)Oc1ccc(cc1)c1oc2c(n1)ccc(c2)OC,330.1,0.009663181,-0.6254,-7.7984,3.27828,378.34665366342284,0.828101927,-1.4171,-7.6284,73.82444,-1.556,-8.596,7.69662,NaN,NaN,397,NaN,397,NaN,NaN
IUVPNIWTGHQYDC-UHFFFAOYSA-N,COc1ccc(cc1)c1ccc(s1)c1ccc(s1)c1cccc2c1cccc2,COc1ccc(cc1)c1ccc(s1)c1ccc(s1)c1cccc2c1cccc2,326.7,1.412378637,0.2198,-7.344,1.42740,414.9404230438543,0.811761737,-0.621,-7.0658,90.05978,-0.979,-8.601,1.78533,363.4088372636499,1.2651678924,369,33884.415613920275,369,33884.415613920275,NaN
LKVJEMXWEODCAY-JVEUSOJLSA-N,O[C@@H]1[C@@H](COS(=O)(=O)NC(=O)[C@@H]2CCCN2)O[C@H]([C@@H]1O)n1cnc2c1ncnc2N,O[C@@H]1[C@@H](COS(=O)(=O)NC(=O)[C@@H]2CCCN2)O[C@H]([C@@H]1O)n1cnc2c1ncnc2N,243.5,0.2182424,1.2392,-8.4195,5.22467,302.84366977406853,0.185668897,-0.7803,-7.8852,135.04692,-0.563,-9.121,7.03676,NaN,NaN,NaN,NaN,NaN,NaN,NaN
RIOXQFHNBCKOKP-UHFFFAOYSA-N,CCCCNC(=O)n1c(NC(=O)OC)nc2c1cccc2,CNC(=O)n1c(NC(=O)OC)nc2c1cccc2,251.1,0.189020464,1.2195,-8.301,3.01034,313.1704935728812,0.198027699,-0.4145,-8.152,80.63823,-0.467,-8.946,3.88678,NaN,NaN,NaN,NaN,NaN,NaN,NaN
PAIPHSOMUILBFB-UHFFFAOYSA-N,N#CC(=Cc1ccc(cc1)c1csc(c1)C=C(c1ccccc1)C#N)c1ccc(c(c1)OC)OC,N#CC(=Cc1ccc(cc1)c1csc(c1)C=C(c1ccccc1)C#N)c1ccc(c(c1)OC)OC,320.0,1.816667949,-0.6974,-8.1406,7.79635,349.7438601001514,0.608140749,-0.9444,-7.9032,86.29391,-1.271,-8.604,2.30363,340.9812519161724,1.4931332028,369,NaN,369,NaN,NaN
JTARTQXWBGGLMK-UHFFFAOYSA-N,CCCCCC1=C(I)c2ccccc2S(=O)(=O)N1CC,C1=C(I)c2ccccc2S(=O)(=O)N1CC,294.8,0.082442564,0.2254,-8.2818,2.99260,NaN,NaN,NaN,Nan,NaN,-0.832,-8.425,2.27056,NaN,NaN,NaN,NaN,NaN,NaN,NaN
MRMZSQWGWFVCIY-UHFFFAOYSA-N,COc1ccc(cc1)c1nc2CCc3c(c2c2c1c1ccc(cc1CC2)Br)ccc(c3)Br,COc1ccc(cc1)c1nc2CCc3c(c2c2c1c1ccc(cc1CC2)Br)ccc(c3)Br,297.7,0.468878174,0.1842,-7.751,1.62692,340.24203733672795,0.399672843,-0.491,-7.7014,383.95702,-0.94,-8.724,1.81347,NaN,NaN,361.0,99900.0,300.0,52400.0,chloroform
VBUNSNZJVLBESL-UHFFFAOYSA-N,CCCCCCCCCCCCC1(CCCCCCCCCCCC)c2cc(ccc2c2c1cc(cc2)[N+](=O)[O-])c1ccc(s1)c1cccs1,C1(C)c2cc(ccc2c2c1cc(cc2)[N+](=O)[O-])c1ccc(s1)c1cccs1,343.7,1.587036029,-0.7338,-7.6576,5.58614,433.5111832360268,0.885664673,-2.3983,-7.45,56.12720,-1.612,-8.848,5.98762,360.8807573909636,1.3658385941,262,NaN,262,NaN,NaN
JWJMBKSFTTXMLL-UHFFFAOYSA-N,COc1c2ccccc2c(c2c1cccc2)OC,COc1c2ccccc2c(c2c1cccc2)OC,375.0,0.150000458,-0.0849,-7.2242,2.34610,386.0031083608458,0.178910126,-0.6278,-7.0716,17.29460,-1.057,-8.083,0.00222,NaN,NaN,436.0,NaN,361.0,NaN,NaN
QKWDUHTZIRIELI-UHFFFAOYSA-N,CCCCCCn1c2ccc(cc2c2c1cccc2)C=O,Cn1c2ccc(cc2c2c1cccc2)C=O,297.0,7.0196e-05,0.4194,-8.0133,5.62272,328.5219883558656,0.004667002,-0.6387,-8.1365,68.35040,-0.605,-8.499,4.68148,NaN,NaN,542,NaN,542,NaN,NaN
CYTYHKWKXUSEGY-UHFFFAOYSA-N,OCCN(c1ccc(cc1)N=Nc1ccc(cc1)N=Nc1ccc(cc1)S(=O)(=O)Nc1cc(OC)nc(n1)OC)C,OCCN(c1ccc(cc1)N=Nc1ccc(cc1)N=Nc1ccc(cc1)S(=O)(=O)Nc1cc(OC)nc(n1)OC)C,456.4,1.9496e-05,-1.2742,-7.6396,10.64494,528.4918943116098,0.022787312,-1.816,-7.8518,568.27309,-1.834,-8.46,11.11043,NaN,NaN,450,NaN,450,NaN,NaN
KVBGVZZKJNLNJU-UHFFFAOYSA-N,OS(=O)(=O)c1ccc2c(c1)cccc2,OS(=O)(=O)c1ccc2c(c1)cccc2,289.0,0.054926222,-0.0734,-8.7909,5.16579,315.00050407902353,0.026826268,-0.9496,-8.7498,192.85586,-1.155,-9.474,4.52652,NaN,NaN,414.0,1770,256.0,1070,NaN
SAOAWGVQBITBJO-UHFFFAOYSA-N,Cc1ccc(cc1)c1nnc(o1)c1ccn2c(c1c1ccccc1)nc1c2cccc1,Cc1ccc(cc1)c1nnc(o1)c1ccn2c(c1c1ccccc1)nc1c2cccc1,343.0,0.412075491,-0.4402,-7.8303,1.54215,414.80160055370914,0.491214448,-1.2073,-7.5261,87.52618,-1.47,-8.667,2.64241,NaN,NaN,341,NaN,341,NaN,NaN
HADUXHUADNQJRI-UHFFFAOYSA-N,O=c1nc2c(c1=O)nc(c2c1ccccc1)c1ccccc1,O=c1nc2c(c1=O)nc(c2c1ccccc1)c1ccccc1,625.3,0.002638717,-2.3564,-8.7125,7.39285,612.5701502248205,0.10041368,-2.7575,-8.3146,195.36623,-2.586,-9.411,5.34469,NaN,NaN,533.0,16600.0,459.0,16600.0,Toluene
IWRHUCBSLVVLJD-UHFFFAOYSA-N,Oc1ccc2c(c1)ccc(c2)C(=O)C,Oc1ccc2c(c1)ccc(c2)C(=O)C,291.1,0.000923601,0.1544,-8.2585,3.15373,327.22142624836016,0.017676119,-0.8901,-8.3447,26.13188,-0.924,-9.078,3.73294,NaN,NaN,317,NaN,317,NaN,NaN
BOPGDPNILDQYTO-UHFFFAOYSA-N,OC1C(O)C(OC1N1C=CCC(=C1)C(=O)N)COP(=O)(OP(=O)(OCC1OC(C(C1O)O)n1cnc2c1ncnc2N)O)O,OC1C(O)C(OC1N1C=CCC(=C1)C(=O)N)COP(=O)(OP(=O)(OCC1OC(C(C1O)O)n1cnc2c1ncnc2N)O)O,308.8,0.140258574,0.4468,-8.231,12.38150,354.6458764459487,0.099732333,-0.714,-8.147,325.88100,-1.034,-8.343,7.19323,NaN,NaN,NaN,NaN,NaN,NaN,NaN