inchikey,smi_pre,smi_post,lambda_sTDA (nm),f1_sTDA,lumo_dft,homo_dft,dmom_dft (D),lambda_z (nm),f1_z,lumo_z,homo_z,dmom_z (D),lumo_mopac,homo_mopac,dmom_mopac (D),lambda_tddft (nm),f1_tddft,lambda_exp_max (nm),epsilon_exp_max ,lambda_exp_min (nm),epsilon_exp_min ,solvent
MUWUMKSJAURITQ-UHFFFAOYSA-N,c1ccc(cc1)c1cc(nc2c1cc(cc2)n1c2ccccc2c2c1cccc2)c1ccc(cc1)n1c2ccccc2c2c1cccc2,c1ccc(cc1)c1cc(nc2c1cc(cc2)n1c2ccccc2c2c1cccc2)c1ccc(cc1)n1c2ccccc2c2c1cccc2,312.4,0.708937006,-0.3068,-7.5907,2.58430,346.8089465888214,0.512419501,-0.5677,-7.512,27.14869,-1.155,-8.162,2.42188,NaN,NaN,341,NaN,341,NaN,NaN
WURDDVUSDJWCDF-UHFFFAOYSA-N,CCCCCCC1(CCCCCC)c2cc(ccc2c2c1cccc2)c1sc(c2c1cccc2)c1cccs1,C1(C)c2cc(ccc2c2c1cccc2)c1sc(c2c1cccc2)c1cccs1,376.1,0.887601749,-0.1615,-7.1261,0.94538,464.0127185834718,0.405052411,-0.7826,-6.8721,277.23138,-1.243,-8.339,0.64376,406.81232735912147,0.6495593321,445,NaN,445,NaN,CH 2 Cl
MPUQYYUBDQQIHV-UHFFFAOYSA-N,FC(=C(C(=C(c1nc2c(s1)cccc2)F)F)F)F,FC(=C(C(=C(c1nc2c(s1)cccc2)F)F)F)F,292.6,0.512018121,-0.478,-8.7539,3.23094,390.25558201291676,0.323572152,-1.9552,-8.6055,192.52579,-1.783,-9.363,3.64888,NaN,NaN,120,NaN,120,NaN,NaN
IXPHMDNZBAWPLU-UHFFFAOYSA-N,Clc1ccc(cc1)c1cc(n(n1)Cc1ccccc1)c1nnc(o1)c1ccccc1,Clc1ccc(cc1)c1cc(n(n1)Cc1ccccc1)c1nnc(o1)c1ccccc1,275.4,1.158133849,0.0125,-8.2913,3.78910,368.1241045294052,0.66038161,-1.1999,-8.1887,236.41090,-1.273,-9.064,3.91155,277.68016351453406,0.9091630453,267,NaN,267,NaN,dichloromethane
DJALIZMIOOGRFR-UHFFFAOYSA-N,O=C1CCC(=C1c1ccc(cc1)N1CCOCC1)c1ccc(cc1)N1CCOCC1,O=C1CCC(=C1c1ccc(cc1)N1CCOCC1)c1ccc(cc1)N1CCOCC1,310.5,0.51315285,0.2831,-7.3681,4.71406,352.6285506413642,0.151996525,-0.5674,-7.6075,37.72370,-0.62,-8.107,4.2609,NaN,NaN,348.0,NaN,254.0,NaN,NaN
DDAPSNKEOHDLKB-UHFFFAOYSA-N,Nc1ccc2c(c1c1c(N)ccc3c1cccc3)cccc2,Nc1ccc2c(c1c1c(N)ccc3c1cccc3)cccc2,305.6,0.193998328,0.7904,-7.4594,2.21490,338.93985348688807,0.139319823,-0.0364,-7.4648,25.25808,-0.394,-8.068,2.44529,NaN,NaN,NaN,NaN,NaN,NaN,NaN
VPPGKKBMPITQMD-UHFFFAOYSA-N,COC(=O)C(Cc1cccs1)CNC(=O)OC(C)(C)C,COC(=O)C(Cc1cccs1)CNC(=O)OC(C)(C)C,230.5,0.170301836,1.3348,-8.6345,2.41198,285.9414169868627,0.179197639,0.0892,-8.3777,108.62688,-0.492,-9.15,2.75757,NaN,NaN,NaN,NaN,NaN,NaN,NaN
IDYMYTUFOOWKLF-UHFFFAOYSA-N,Fc1c(F)c(F)c(c2c1cc1c(C)nn(c1n2)C)F,Fc1c(F)c(F)c(c2c1cc1c(C)nn(c1n2)C)F,341.0,0.113075611,-0.5593,-8.2515,3.05167,370.1020847925482,0.154332636,-1.7616,-8.6944,201.04890,-1.799,-9.016,3.8285,NaN,NaN,386.0,NaN,0.0,NaN,Toluene
QWGVEKLEWXNESY-UHFFFAOYSA-N,[O-][N+](=O)c1ccc2c(c1)C(C)(C)C1(N2C)C=Cc2c(O1)c(cc1c2cccc1)c1nc2c(s1)cccc2,[O-][N+](=O)c1ccc2c(c1)C(C)(C)C1(N2C)C=Cc2c(O1)c(cc1c2cccc1)c1nc2c(s1)cccc2,322.6,0.197168309,-0.2535,-8.0403,7.09000,421.7149605629376,0.000148235,-2.1611,-7.926,196.66743,-1.277,-8.706,7.58212,NaN,NaN,336,NaN,336,NaN,acetone
OCTNGBXXGFADNQ-UHFFFAOYSA-N,CCCN1c2ccc(cc2Sc2c1cccc2)C=Cc1cc(=O)oc2c1cc(C)cc2,CCCN1c2ccc(cc2Sc2c1cccc2)C=Cc1cc(=O)oc2c1cc(C)cc2,343.3,0.471135889,-0.3664,-7.3106,6.84449,336.4564407204984,0.496377524,-1.0486,-7.6821,128.84457,-1.15,-7.777,7.90265,NaN,NaN,423,NaN,423,NaN,chloroform
SXSIHVNMXOMEDS-UHFFFAOYSA-N,CNC(Cc1ccccc1Cl)C,CNC(Cc1ccccc1Cl)C,238.7,0.001836466,1.4471,-8.3352,1.72823,272.97269574087113,0.011412957,0.2369,-9.0148,88.59831,-0.187,-8.903,2.36048,NaN,NaN,483.4,NaN,376.8,NaN,Water
LSPQUUKGWKMLSQ-UHFFFAOYSA-N,CCC1=C(C)C2=C(c3cc(O)cc(c3)O)c3[nH]c(c(c3C)CC)C=C3N=C(C=c4[nH]c(=CC1=N2)c(C)c4CC)C(=C3C)CC,CCC1=C(C)C2=C(c3cc(O)cc(c3)O)c3[nH]c(c(c3C)CC)C=C3N=C(C=c4[nH]c(=CC1=N2)c(C)c4CC)C(=C3C)CC,628.0,0.003865267,-0.7982,-6.5915,2.04295,591.5276641483953,0.05838679,-1.1723,-6.466,217.89448,-1.431,-7.593,4.5162,NaN,NaN,822.0,95800.0,407.0,1500.0,PhCN
HXGZMCOHHRNVNM-UHFFFAOYSA-N,OC(=O)c1c[nH]c2c1CCc1c2cc(c(c1)Cl)Cl,OC(=O)c1c[nH]c2c1CCc1c2cc(c(c1)Cl)Cl,278.8,0.482343395,0.5886,-7.9245,0.82698,350.534912087938,0.381962514,-0.8535,-8.0604,177.05623,-0.975,-8.912,2.5932,NaN,NaN,NaN,NaN,NaN,NaN,NaN
IKWZSOXWWRVPHX-UHFFFAOYSA-N,N#CC(=Cc1ccc(cc1)c1csc(c1)C=C(c1ccccc1)C#N)c1ccc(cc1)c1ccc(cc1)C,N#CC(=Cc1ccc(cc1)c1csc(c1)C=C(c1ccccc1)C#N)c1ccc(cc1)c1ccc(cc1)C,323.3,1.686696994,-0.6813,-8.0914,8.29235,356.27643219972316,0.584380206,-0.9467,-7.8515,188.74925,-1.29,-8.905,3.43761,NaN,NaN,368.0,NaN,350.0,NaN,THF
STDZRKNCZUXJED-UHFFFAOYSA-N,Cc1ccc(cc1)C(=O)Oc1c(cc(cc1[N+](=O)[O-])[N+](=O)[O-])[N+](=O)[O-],Cc1ccc(cc1)C(=O)Oc1c(cc(cc1[N+](=O)[O-])[N+](=O)[O-])[N+](=O)[O-],318.5,0.001154644,-1.4566,-9.6336,4.29938,434.2703972171757,0.004218746,-3.3808,-9.4722,250.05485,-2.398,-10.311,5.54438,NaN,NaN,240.0,22029.26463053456,225.0,22029.26463053456,NaN
QKVWPNRUXZYLQV-UHFFFAOYSA-N,c1cc(cc(c1)c1cccc2c1sc1c2cccc1)c1ccc2c(c1)c1ccccc1c1c2cccc1,c1cc(cc(c1)c1cccc2c1sc1c2cccc1)c1ccc2c(c1)c1ccccc1c1c2cccc1,302.1,0.061877819,0.3704,-7.9332,0.77116,337.00516011281235,0.002123438,-0.1951,-7.6875,110.31521,-0.737,-8.39,1.1681,NaN,NaN,271.0,NaN,246.0,NaN,NaN
DVWKNPYXLMTYJU-UHFFFAOYSA-N,c1ccc(cc1)[Si]1(c2ccccc2)C(=CC=C1c1ccccc1)c1ccccc1,c1ccc(cc1)[Si]1(c2ccccc2)C(=CC=C1c1ccccc1)c1ccccc1,348.9,0.710176895,-0.051,-7.6173,0.43229,307.34803769336554,0.38876792,0.3306,-7.6953,11.40464,-0.318,-9.015,0.18302,NaN,NaN,382,NaN,382,NaN,NaN
DGFKWJUESIPUNG-UHFFFAOYSA-N,ClCC(=O)Nc1ccc2c(n1)nc(cc2C)C,ClCC(=O)Nc1ccc2c(n1)nc(cc2C)C,280.8,0.230813051,-0.0941,-8.7452,6.45924,331.77468130988404,0.328234359,-0.8671,-8.5511,192.16052,-1.102,-9.39,6.61587,NaN,NaN,328,NaN,328,NaN,CH3CN
BLNYDLTYEMXIKZ-UHFFFAOYSA-N,[O-][N+](=O)c1ccc(cc1)C=NN=Cc1ccc2c(c1)cccc2,[O-][N+](=O)c1ccc(cc1)C=NN=Cc1ccc2c(c1)cccc2,346.9,0.003686463,-1.127,-8.277,6.01058,425.04010423552853,0.021352435,-2.5546,-8.1639,273.81217,-1.804,-9.168,6.36169,NaN,NaN,328,NaN,328,NaN,dioxane
HOGGFLCPKBWYAC-UHFFFAOYSA-N,Cc1ccc(cc1)N(c1ccc(cc1)C=C1SC(=S)N(C1=O)CC(=O)O)c1ccc(cc1)C=NN(c1ccccc1)c1ccccc1,Cc1ccc(cc1)N(c1ccc(cc1)C=C1SC(=S)N(C1=O)CC(=O)O)c1ccc(cc1)C=NN(c1ccccc1)c1ccccc1,375.9,2.061203336,-0.8344,-7.1162,7.69661,464.7083898257258,9.2461e-05,-1.4795,-7.5253,815.66184,-1.56,-8.045,4.60882,400.89304817550834,1.6785926049,495.0,NaN,468.0,NaN,NaN
UJUQTXSIMALSSK-UHFFFAOYSA-N,CN(c1ccc(cc1)c1c(F)c(F)c(c(c1F)F)c1ccc(cc1)N(C)C)C,CN(c1ccc(cc1)c1c(F)c(F)c(c(c1F)F)c1ccc(cc1)N(C)C)C,268.8,1.205724941,1.0021,-7.308,0.19549,314.60085867927853,0.023281167,-0.5378,-7.9158,9.17356,-0.81,-8.245,1.7052,296.28684464283197,1.6407288413,331,NaN,331,NaN,dichloromethane
JAAJQSRLGAYGKZ-UHFFFAOYSA-N,OC1CCCc2c1cccc2,OC1CCCc2c1cccc2,235.5,0.00283815,1.5845,-8.9806,1.74505,273.33377073523735,0.004458269,0.671,-8.7472,33.04355,0.185,-9.435,2.12272,NaN,NaN,NaN,NaN,NaN,NaN,NaN
FCITVPLGVSJWSF-UHFFFAOYSA-N,COc1ccc(cc1)N(c1ccc(cc1)C)c1ccc(cc1)C=CC(=O)c1cc(sc1C)C,COc1ccc(cc1)N(c1ccc(cc1)C)c1ccc(cc1)C=CC(=O)c1cc(sc1C)C,338.4,1.33459009,-0.1478,-7.057,4.44357,375.70969213788993,0.056813289,-0.6814,-7.2527,251.76502,-0.663,-7.825,5.09612,355.92867029120816,1.1733217058,422,NaN,422,NaN,NaN
IHKWJHYPTPZIGN-UHFFFAOYSA-N,OCC(Cn1ccc(=CC=C2C(=NN(C2=O)c2ccccc2)C)cc1)O,OCC(Cn1ccc(=CC=C2C(=NN(C2=O)c2ccccc2)C)cc1)O,383.1,0.83328314,-0.5638,-6.9914,11.17485,455.8242588437634,1.009887358,-1.3777,-7.245,86.37960,-1.265,-7.851,10.99378,419.95797516932373,1.0555231655,462,NaN,462,NaN,NaN
YDTCQNVTIBYHHV-UHFFFAOYSA-N,CCCCCCc1ccc(s1)c1sc(c2c1cccc2)c1ccc2c(c1)c1ccccc1n2c1ccccc1,Cc1ccc(s1)c1sc(c2c1cccc2)c1ccc2c(c1)c1ccccc1n2c1ccccc1,380.5,0.878292695,0.0522,-6.8735,2.36216,465.9308470706639,0.409739718,-0.6995,-6.7759,221.38589,-1.095,-8.124,1.52427,409.4319827265024,0.6584922897,458,NaN,458,NaN,CH 2 Cl
FVFKQIHCNITPCR-UHFFFAOYSA-N,CN(c1ccc(c2c1cccc2)c1nc(c(n1c1ccccc1)c1ccccc1)c1ccccc1)C,CN(c1ccc(c2c1cccc2)c1nc(c(n1c1ccccc1)c1ccccc1)c1ccccc1)C,309.2,0.41633488,0.618,-7.3096,4.19218,348.56395390920346,0.350844524,-0.2235,-7.1077,21.02487,-0.568,-8.31,4.80409,NaN,NaN,350,NaN,350,NaN,NaN
MIVFFFIQBDTJFN-UHFFFAOYSA-N,CCCCOc1ccc(cc1)C1CC(=NN1c1ccc(c(c1)C)C)c1ccc(cc1)F,COc1ccc(cc1)C1CC(=NN1c1ccc(c(c1)C)C)c1ccc(cc1)F,319.2,0.960230193,0.6769,-6.9338,2.84420,338.29249223875485,0.496930238,-0.5859,-7.6133,178.90147,-0.628,-8.063,2.15149,335.5276927074027,0.6526870852,345,NaN,345,NaN,NaN
HNDLXUUYZCHMRB-UHFFFAOYSA-N,N#Cc1c(N)sc(c1c1ccc(cc1)Cl)N=Nc1ccc(cc1)[N+](=O)[O-],N#Cc1c(N)sc(c1c1ccc(cc1)Cl)N=Nc1ccc(cc1)[N+](=O)[O-],460.6,0.003474667,-1.5,-8.2728,6.76252,559.4954801692403,0.003629032,-2.6543,-8.3052,53.07681,-2.105,-9.141,8.93687,NaN,NaN,562.0,23442.288153199228,464.0,18620.871366628657,Acetone
HSPIUFXFGAHXBI-UHFFFAOYSA-N,N#CC(=C1C(CSc2c1cccc2)C(c1ccc(cc1)N(C)C)C[N+](=O)[O-])C#N,N#CC(=C1C(CSc2c1cccc2)C(c1ccc(cc1)N(C)C)C[N+](=O)[O-])C#N,342.4,0.136133574,-0.9667,-7.8935,9.65784,441.6964674225282,0.003569059,-2.7877,-8.3694,184.70246,-1.486,-8.62,9.48178,NaN,NaN,NaN,NaN,NaN,NaN,NaN
JANXIJBMSWPGJW-UHFFFAOYSA-N,Clc1ccc(cc1)C=C1n2ccnc2C(OC1C(C)(C)C)O,Clc1ccc(cc1)C=C1n2ccnc2C(OC1C(C)(C)C)O,252.9,0.504877165,0.5006,-8.6763,3.41291,287.7999034482444,0.356941227,-0.2338,-8.3912,132.58917,-0.902,-9.47,3.78183,NaN,NaN,NaN,NaN,NaN,NaN,NaN
OMZVNZJNZUGOJK-UHFFFAOYSA-N,c1ccc(nc1)C=Nc1ccc(cc1)Cc1ccc(cc1)N=Cc1ccccn1,c1ccc(nc1)C=Nc1ccc(cc1)Cc1ccc(cc1)N=Cc1ccccn1,306.3,0.653958465,-0.0564,-8.1266,0.45275,366.0590445984755,0.000644652,-0.5149,-7.5736,50.28359,-0.811,-8.893,0.98486,NaN,NaN,551.0,NaN,527.0,NaN,NaN
SFHYNDMGZXWXBU-UHFFFAOYSA-N,O=Cc1cccc(c1)C=NNC(=O)Nn1c(=O)c2cc(cc3c2c(c1=O)cc(c3N)S(=O)(=O)O)S(=O)(=O)O,O=Cc1cccc(c1)C=NNC(=O)Nn1c(=O)c2cc(cc3c2c(c1=O)cc(c3N)S(=O)(=O)O)S(=O)(=O)O,335.7,0.296937206,-1.3474,-8.8555,0.43190,364.44502764698314,0.383719325,-2.4224,-8.977,402.05738,-2.123,-9.307,4.51096,NaN,NaN,730.0,NaN,405.0,NaN,NaN
KGKAYWMGPDWLQZ-UHFFFAOYSA-N,BrCc1ccccc1CBr,BrCc1ccccc1CBr,243.8,0.040048325,0.5775,-9.2959,3.52706,279.62155707150123,0.001288833,-0.1088,-8.9332,217.12944,-0.676,-9.719,1.29246,NaN,NaN,385,NaN,385,NaN,NaN
FPPIHQTTWQOFBI-UHFFFAOYSA-N,CC(=O)OCc1nc2c(o1)c1ccc(cc1cc2)Br,CC(=O)OCc1nc2c(o1)c1ccc(cc1cc2)Br,293.5,0.020196349,0.3654,-8.2409,2.52655,340.80318418225306,0.104252688,-0.4493,-7.8319,283.41730,-1.09,-9.1,2.83042,NaN,NaN,220,NaN,220,NaN,NaN
SUXHGLJSGYSBMK-UHFFFAOYSA-N,CC(c1ccc2c(c1)c(c1c(c2c2cccs2)cc(cc1)C(C)(C)C)N(c1cccc2c1cccc2)c1ccccc1)(C)C,CC(c1ccc2c(c1)c(c1c(c2c2cccs2)cc(cc1)C(C)(C)C)N(c1cccc2c1cccc2)c1ccccc1)(C)C,399.8,0.35870972,-0.2366,-7.0083,1.08606,421.8584498315878,0.296512656,-0.6814,-6.8354,131.53987,-1.106,-7.832,0.48217,NaN,NaN,480.0,NaN,357.0,NaN,NaN
LHNVJEDETHWNFO-UHFFFAOYSA-N,Cc1ccc(cc1)C(C1=C(O)C(=O)c2c(C1=O)cccc2)Nc1ccc(cc1)C,Cc1ccc(cc1)C(C1=C(O)C(=O)c2c(C1=O)cccc2)Nc1ccc(cc1)C,441.7,0.000878473,-1.3223,-7.4006,3.18810,461.76610206891496,0.009712486,-2.2438,-7.8277,79.11531,-1.903,-8.042,4.39697,NaN,NaN,473,3162.2776601683795,473,3162.2776601683795,NaN
NBMKFNLHVKAEKS-UHFFFAOYSA-N,CCCCCCc1cc(sc1C=C(C(=O)O)C#N)c1ccc(c2c1nsn2)c1ccc2c(c1)Sc1c(N2CC(CCCC)CC)cccc1,Cc1cc(sc1C=C(C(=O)O)C#N)c1ccc(c2c1nsn2)c1ccc2c(c1)Sc1c(N2CC(C)CC)cccc1,415.0,1.201018885,-1.3941,-7.4129,5.77712,515.0984561923708,0.55616773,-2.2126,-7.7613,489.30521,-2.07,-7.837,6.81436,460.65091216511036,1.0555355401,420,18900.0,420,18900.0,NaN
CIOVLYXJCMHRLF-UHFFFAOYSA-N,COc1ccc(cc1)c1cnc(n1C)c1ccc(cc1)c1nc2c(n1C)cccc2,COc1ccc(cc1)c1cnc(n1C)c1ccc(cc1)c1nc2c(n1C)cccc2,296.7,1.673106122,0.3369,-7.5057,2.70281,346.3245765516862,0.804121133,-0.407,-7.4714,46.84706,-0.722,-8.611,2.64929,305.4775987612769,1.6560216067,320,36000,320,36000,NaN
RKOOQHAHSCJTBP-NYFMKLKXSA-N,COC(=O)[C@H](c1ccc(cc1)OS(=O)(=O)C(F)(F)F)[C@@H](C=C(c1ccccc1)O[Si](C(C)(C)C)(c1ccccc1)c1ccccc1)C,COC(=O)[C@H](c1ccc(cc1)OS(=O)(=O)C(F)(F)F)[C@@H](C=C(c1ccccc1)O[Si](C(C)(C)C)(c1ccccc1)c1ccccc1)C,240.6,0.082776945,0.9715,-8.3503,5.93057,410.81576675117185,0.006584382,-2.5788,-8.0139,652.67548,-1.234,-9.177,1.47099,NaN,NaN,NaN,NaN,NaN,NaN,NaN
FDDDEECHVMSUSB-UHFFFAOYSA-N,Nc1ccc(cc1)S(=O)(=O)N,Nc1ccc(cc1)S(=O)(=O)N,255.1,0.025840204,1.2012,-8.4164,5.47507,285.61206727828534,0.01698351,-0.2038,-8.8848,109.30256,-0.251,-9.043,6.16934,NaN,NaN,268.0,NaN,268.0,NaN,NaN
ZTEYEFPSJPSRRA-OAQYLSRUSA-N,CC(=CCc1c2O[C@H](CC(=O)c2c(c(c1O)CC=C(C)C)O)c1ccc(cc1O)O)C,CC(=CCc1c2O[C@H](CC(=O)c2c(c(c1O)CC=C(C)C)O)c1ccc(cc1O)O)C,291.4,0.122714835,0.4097,-8.127,2.66143,356.6864165866043,0.017620517,-0.8866,-8.1478,161.21795,-0.578,-8.914,2.058,NaN,NaN,223,NaN,223,NaN,NaN
PMIXTBUKPFBGRO-UHFFFAOYSA-N,CCc1c(C)[nH]c(=O)c2c1c(=N)[nH]c2=O,CCc1c(C)[nH]c(=O)c2c1c(=N)[nH]c2=O,339.2,0.15248298,-0.6539,-8.5905,8.50022,403.725817015642,0.23506089,-1.9301,-8.7898,122.71923,-1.572,-9.244,6.45319,NaN,NaN,227,NaN,227,NaN,NaN
IILQFQOBJXFGSZ-UHFFFAOYSA-N,CCCn1cnc2c1cc([N+](=O)[O-])c1c2c(on1)c1ccc(cc1)[N+](=O)[O-],CCCn1cnc2c1cc([N+](=O)[O-])c1c2c(on1)c1ccc(cc1)[N+](=O)[O-],352.3,0.713072361,-1.3497,-8.5126,9.32711,512.3313983698498,0.499081017,-2.9423,-8.4488,181.10347,-2.24,-9.409,9.0764,NaN,NaN,425,NaN,425,NaN,NaN
JLKDDSRQICHHGY-UHFFFAOYSA-N,ClCCCC1=C(I)c2cc(C)ccc2S(=O)(=O)N1C,ClC1=C(I)c2cc(C)ccc2S(=O)(=O)N1C,299.9,0.090268437,0.0482,-8.472,4.20304,NaN,NaN,NaN,Nan,NaN,-0.947,-8.452,3.8405,NaN,NaN,NaN,NaN,NaN,NaN,NaN
GRJILLKWBDJBQS-UHFFFAOYSA-N,CCCCCCCCn1c(=O)c2c(c1c1ccccc1c1c3ccccc3cc3c1cccc3)c(=O)n(c2c1ccccc1c1c2ccccc2cc2c1cccc2)CCCCCCCC,Cn1c(=O)c2c(c1c1ccccc1c1c3ccccc3cc3c1cccc3)c(=O)n(c2c1ccccc1c1c2ccccc2cc2c1cccc2)C,366.5,0.075118808,-0.3301,-7.3649,0.03599,415.35744859465217,0.042844157,-1.1887,-7.1377,84.43991,-1.023,-8.121,0.58269,NaN,NaN,485,NaN,485,NaN,NaN
WVUAVQXZNSAMTA-UHFFFAOYSA-N,Clc1ccc(c(c1)Cl)Nc1nnc(s1)c1cnccn1,Clc1ccc(c(c1)Cl)Nc1nnc(s1)c1cnccn1,303.2,0.009014948,-0.3849,-8.2193,3.39241,376.27981306677896,0.785935802,-1.2943,-8.2545,184.68422,-1.823,-8.967,3.98967,NaN,NaN,268.0,NaN,268.0,NaN,NaN
XSCHRSMBECNVNS-UHFFFAOYSA-N,c1ccc2c(c1)nccn2,c1ccc2c(c1)nccn2,332.4,0.0085807,-0.2027,-9.1259,0.39742,373.89685888270105,0.003484657,-0.9184,-8.7696,24.03482,-1.147,-9.857,0.51023,NaN,NaN,399.0,NaN,398.0,NaN,NaN
BABAOYWANPWHOB-UHFFFAOYSA-N,CC(C1=CC(=CC=Cc2ccncn2)C=C(O1)C(C)(C)C)(C)C,CC(C1=CC(=CC=Cc2ccncn2)C=C(O1)C(C)(C)C)(C)C,336.5,1.885736273,-0.06,-6.9454,5.71203,398.5348711202303,1.213435567,-0.8179,-7.0794,159.94764,-0.835,-7.971,6.86506,NaN,NaN,429,NaN,429,NaN,dichloromethane
FIQQDQKYWFUQRF-UHFFFAOYSA-N,CCOc1ccccc1N=Nc1ccc(c(c1)C=Nc1ccccc1S)O,CCOc1ccccc1N=Nc1ccc(c(c1)C=Nc1ccccc1S)O,426.1,0.035436006,-0.4549,-7.925,3.04282,527.143700703672,0.014719078,-1.2507,-8.2049,142.83366,-1.099,-8.569,3.06476,NaN,NaN,490.0,NaN,351.0,NaN,NaN
AMVZYBAETZAGPC-UHFFFAOYSA-N,Cc1ccc(cc1)S(=O)(=O)n1ccc2c1ccc(c2)C(=C)c1[nH]c2c(c1CCNS(=O)(=O)c1ccccc1[N+](=O)[O-])cccc2,Cc1ccc(cc1)S(=O)(=O)n1ccc2c1ccc(c2)C(=C)c1[nH]c2c(c1CCNS(=O)(=O)c1ccccc1[N+](=O)[O-])cccc2,318.2,0.013179485,-0.557,-7.8196,7.07458,636.7960883693048,0.004699965,-2.8665,-7.6714,294.37979,-1.16,-8.561,5.94253,NaN,NaN,299,NaN,299,NaN,NaN
CBRLXXZMZGCCPP-UHFFFAOYSA-N,COc1ccc(cc1)c1sc(=S)n(c1C)O,COc1ccc(cc1)c1sc(=S)n(c1C)O,280.4,0.633157165,0.7138,-7.6255,6.78565,426.5022304970886,9.3488e-05,-0.7285,-8.3551,225.06402,-1.12,-8.181,5.91295,NaN,NaN,334.0,NaN,333.0,NaN,NaN
XSMCTCPFNYPWKJ-UHFFFAOYSA-N,CCCCN(c1ccc(cc1)C=CC1=C(C#N)C(=C(C#N)C#N)OC1(C)C)CCCC,CN(c1ccc(cc1)C=CC1=C(C#N)C(=C(C#N)C#N)OC1(C)C)C,373.9,2.091615636,-1.4879,-7.8415,18.10556,425.47768841971055,1.253202795,-1.871,-7.8995,249.25652,-2.124,-8.628,17.04093,416.11019267431686,1.5700723801,588,NaN,588,NaN,NaN
HXNFUBHNUDHIGC-UHFFFAOYSA-N,O=c1[nH]c(=O)c2c(n1)[nH][nH]c2,O=c1[nH]c(=O)c2c(n1)[nH][nH]c2,263.4,0.270002014,-0.0622,-8.9405,8.84511,312.7754752913816,0.003516851,-1.7058,-9.7925,30.47922,-1.658,-10.007,7.7646,NaN,NaN,NaN,NaN,NaN,NaN,NaN
KXBIBNOLDROJAF-UHFFFAOYSA-N,N#Cc1ccc(cc1)C=Cc1cc2c(n1Cc1ccccc1)ncnc2N(Cc1ccccc1)C,N#Cc1ccc(cc1)C=Cc1cc2c(n1Cc1ccccc1)ncnc2N(Cc1ccccc1)C,344.8,1.290196999,-0.4808,-7.4361,4.27156,371.6552709997112,0.744659034,-0.704,-7.3729,32.05985,-1.062,-8.283,3.20007,369.36334200029626,1.0421214399,385,NaN,385,NaN,NaN
JOOLNKSJRITIDR-UHFFFAOYSA-N,CO[Si](CCCSC(=O)c1ccncc1)(OC)OC,CO[Si](CCCSC(=O)c1ccncc1)(OC)OC,287.6,0.001922551,0.0286,-9.2725,3.37660,318.72544577250295,4.0356e-05,0.0644,-9.2797,36.11025,-0.602,-8.983,2.75366,NaN,NaN,265,122899.99999999999,265,122899.99999999999,chloroform
KEUNUTMPLLLUQP-UHFFFAOYSA-N,COc1ccc(c(c1)OC)Cn1c(Nc2ccc(cc2)I)nc2c1cc1oc(=O)c(c(c1c2)C)C(=O)N,COc1ccc(c(c1)OC)Cn1c(Nc2ccc(cc2)I)nc2c1cc1oc(=O)c(c(c1c2)C)C(=O)N,312.3,0.652407904,-0.0961,-7.64,8.83374,NaN,NaN,NaN,Nan,NaN,-1.357,-8.416,9.07086,NaN,NaN,362,NaN,362,NaN,ethanol
MBELRJYRDPRNIF-UHFFFAOYSA-N,Fc1ccc(cc1)c1nc2CCc3c(c2c2c1c1ccccc1CC2)cccc3,Fc1ccc(cc1)c1nc2CCc3c(c2c2c1c1ccccc1CC2)cccc3,288.8,0.34387132,0.3529,-7.8936,3.32090,330.6245290813431,0.337993448,-0.2045,-7.6464,156.35368,-0.783,-8.761,3.72217,NaN,NaN,322.0,30900.0,266.0,12100.0,chloroform
YMRKVKKEFOADSQ-UHFFFAOYSA-N,O=C(c1ccco1)On1c(=O)c2cccc3c2c(c1=S)ccc3,O=C(c1ccco1)On1c(=O)c2cccc3c2c(c1=S)ccc3,407.6,0.001475716,-1.2329,-8.5592,2.79626,541.652242924874,0.000628832,-1.7506,-8.5055,131.30808,-1.937,-8.772,3.12116,NaN,NaN,468.3,NaN,397.5,NaN,NaN
ACSULHHWMXVWNZ-UHFFFAOYSA-N,Fc1ccc2c(c1)c(=O)c(cn2C)C(=O)c1ccccc1Cc1ccccc1,Fc1ccc2c(c1)c(=O)c(cn2C)C(=O)c1ccccc1Cc1ccccc1,292.4,0.005861609,0.1554,-8.3303,6.15862,387.32957952359783,8.6621e-05,-1.0939,-8.3389,96.13501,-0.866,-8.92,6.51546,NaN,NaN,515.0,NaN,330.0,NaN,NaN
YZXOQBWQZCNWHN-UHFFFAOYSA-N,O=C1CC=Nc2c1cc(cc2)C(=O)C,O=C1CC=Nc2c1cc(cc2)C(=O)C,307.3,0.00015263,-0.6041,-9.344,3.11314,306.7397288607216,0.148178199,-1.2168,-9.1671,2.73587,-1.424,-9.965,3.37273,NaN,NaN,395.0,NaN,335.0,NaN,NaN
XXEVIFVYBBKKMK-UHFFFAOYSA-N,CC(=O)OCCn1c(=O)c2ccc(c3c2c(c1=O)ccc3)Oc1ccccc1C,CC(=O)OCCn1c(=O)c2ccc(c3c2c(c1=O)ccc3)Oc1ccccc1C,325.8,0.344509861,-0.5199,-8.3037,3.94585,342.2141827366924,0.415507731,-1.3866,-8.4409,163.37938,-1.327,-9.105,4.08319,NaN,NaN,NaN,NaN,NaN,NaN,NaN
ZXNVWXYLFYKNAE-JTQLQIEISA-N,OC(=O)[C@](Cc1ccc(cc1)OP(=O)(O)O)(N)C,OC(=O)[C@](Cc1ccc(cc1)OP(=O)(O)O)(N)C,234.9,0.009147959,1.2371,-9.1848,8.02686,284.3022206042276,0.001747749,0.1552,-8.7502,222.23851,-0.545,-9.062,4.94175,NaN,NaN,198,NaN,198,NaN,NaN
NNLGGCUJFHPBGB-UHFFFAOYSA-N,CN(c1ccc(cc1)c1nc2CCc3c(c2c2c1c1ccccc1CC2)cccc3)C,CN(c1ccc(cc1)c1nc2CCc3c(c2c2c1c1ccccc1CC2)cccc3)C,305.2,0.59645648,0.5948,-7.0461,1.57462,336.6391485351715,0.388483007,-0.0486,-7.3192,12.09577,-0.498,-8.029,1.58608,NaN,NaN,351.0,NaN,253.0,NaN,acetonitrile
OQIOHYHRGZNZCW-UHFFFAOYSA-N,CC(c1cc(O)c(cc1O)C)C,CC(c1cc(O)c(cc1O)C)C,260.2,0.101510303,1.854,-7.6543,0.18645,297.03928702803944,0.045596022,0.578,-8.1141,32.80852,0.062,-8.488,2.49226,NaN,NaN,212,NaN,212,NaN,NaN
YRSAKVZHZCFCRY-UHFFFAOYSA-N,O=Cc1ccc(s1)c1ccc(s1)C1=CCC(CC1)c1ccccc1,O=Cc1ccc(s1)c1ccc(s1)C1=CCC(CC1)c1ccccc1,338.1,1.146740206,-0.5427,-7.767,5.07720,391.6114921209844,0.680768693,-1.227,-7.8919,381.17550,-1.335,-9.165,4.19476,NaN,NaN,393.0,NaN,380.0,NaN,EtOH
IEIIQTLJRBAIFG-UHFFFAOYSA-N,CC(n1c(=S)n(c(c1P(c1ccccc1)c1ccccc1)P(=S)(c1ccccc1)c1ccccc1)C)C,CC(n1c(=S)n(c(c1P(c1ccccc1)c1ccccc1)P(=S)(c1ccccc1)c1ccccc1)C)C,271.1,0.238071101,0.4023,-7.4036,6.41454,390.99400317093557,8.26e-05,-0.2023,-7.9794,200.42248,-0.621,-7.801,6.24804,NaN,NaN,270,NaN,270,NaN,NaN
KTRWCKCWBSISFH-UHFFFAOYSA-N,C#Cc1cccc2c1cccc2C#Cc1cccc2c1cccc2C#Cc1cccc2c1cccc2N(C)C,C#Cc1cccc2c1cccc2C#Cc1cccc2c1cccc2C#Cc1cccc2c1cccc2N(C)C,350.1,1.770299874,-0.3956,-7.4777,1.96930,371.87821957259644,1.203019846,-0.6472,-7.2595,66.28563,-1.117,-8.409,2.42313,356.5427992443764,1.6200834514,414.0,26600,363.0,26600,NaN
VNDNEUAUKVFANJ-UHFFFAOYSA-N,CCOC(=O)c1c(C(=O)OCC)c(c2n1ccc(c2)C=O)C(=O)OCC,CCOC(=O)c1c(C(=O)OCC)c(c2n1ccc(c2)C=O)C(=O)OCC,321.1,0.29252951,-0.5825,-8.3624,5.54526,409.8651186958799,0.302685002,-1.9042,-8.4707,90.82148,-1.542,-9.362,3.61994,NaN,NaN,1800,NaN,1800,NaN,NaN
GNCADXZFVLOIEH-UHFFFAOYSA-N,COc1cccc(c1)c1ccn(c1)C,COc1cccc(c1)c1ccn(c1)C,255.9,0.189568098,1.595,-7.625,3.81511,291.1794232163073,0.114101671,0.4421,-7.6264,33.39729,0.24,-8.405,4.26226,NaN,NaN,269,12220,269,12220,NaN
AVKUERGKIZMTKX-BBGACYKPSA-N,N[C@@H](c1ccccc1)C(=O)N[C@@H]1C(=O)N2[C@@H]1SC([C@@H]2C(=O)O)(C)C,N[C@@H](c1ccccc1)C(=O)N[C@@H]1C(=O)N2[C@@H]1SC([C@@H]2C(=O)O)(C)C,230.7,0.001491095,1.2723,-9.322,5.58138,301.29817352491773,0.003110433,-0.1604,-9.1576,169.43520,-0.893,-9.385,7.05974,NaN,NaN,649.0,NaN,428.0,NaN,NaN