inchikey,smi_pre,smi_post,lambda_sTDA (nm),f1_sTDA,lumo_dft,homo_dft,dmom_dft (D),lambda_z (nm),f1_z,lumo_z,homo_z,dmom_z (D),lumo_mopac,homo_mopac,dmom_mopac (D),lambda_tddft (nm),f1_tddft,lambda_exp_max (nm),epsilon_exp_max ,lambda_exp_min (nm),epsilon_exp_min ,solvent
DOKOJOXLVSQDFB-UHFFFAOYSA-N,CN(CCOc1ccc2c(c1)c1nc3ccccc3c(c1o2)NCCCCNC(=O)CCCC1=C2C(=CC(=[N+]2[B-](n2c1c(C)cc2C)(F)F)C)C)C,CN(CCOc1ccc2c(c1)c1nc3ccccc3c(c1o2)NCNC(=O)C1=C2C(=CC(=[N+]2[B-](n2c1c(C)cc2C)(F)F)C)C)C,382.0,0.477518046,-0.9721,-7.3924,5.64876,541.1793906831239,0.484268204,-1.4984,-7.1128,107.78706,-1.844,-8.37,2.47197,NaN,NaN,504.5,NaN,504.5,NaN,NaN
KEILUTHWAVRVQU-UHFFFAOYSA-N,COc1ccccc1OCC(COC(=O)c1cccnc1)O,COc1ccccc1OCC(COC(=O)c1cccnc1)O,264.8,0.002728378,0.1795,-8.6481,4.27139,292.4845444810183,0.00454901,-0.9644,-8.5813,73.58482,-0.958,-8.857,1.83153,NaN,NaN,446.0,28300,441.0,28300,NaN
QJVNSWYOOGHNPT-UHFFFAOYSA-N,[O-][N+](=O)c1ccc(cc1)N=Nc1c(N)nc2n(c1N)nc(c2N=Nc1ccc(cc1)[N+](=O)[O-])N,[O-][N+](=O)c1ccc(cc1)N=Nc1c(N)nc2n(c1N)nc(c2N=Nc1ccc(cc1)[N+](=O)[O-])N,403.0,0.006819738,-1.5481,-8.0307,5.75948,512.3313983698498,0.076668779,-2.7079,-8.1287,40.46940,-2.111,-9.061,6.42262,NaN,NaN,508,NaN,508,NaN,NaN
SPLMSTVOAQXULY-UHFFFAOYSA-N,CCCCCCc1ccc(s1)c1sc(c2c1cc1ccccc1c2)c1cccs1,Cc1ccc(s1)c1sc(c2c1cc1ccccc1c2)c1cccs1,483.8,0.472185403,-0.7294,-6.6494,0.59308,601.8650408034158,0.32569643,-1.3408,-6.4145,165.84082,-1.635,-7.837,1.40748,NaN,NaN,595,NaN,595,NaN,CH 2 Cl
XSJMUTXKDQIEHR-UHFFFAOYSA-N,[O-][N+](=O)c1ccc(cc1)C#Cc1ccc(cc1)n1c2ccccc2c2c1cccc2,[O-][N+](=O)c1ccc(cc1)C#Cc1ccc(cc1)n1c2ccccc2c2c1cccc2,317.6,2.139e-06,-0.8077,-7.8404,3.89158,422.00203677843314,6.0666e-05,-2.4534,-7.8235,316.30757,-1.566,-8.434,5.42113,NaN,NaN,371.0,15100.0,366.0,15100.0,CH 2 Cl 2
JLABRXHNCDFFQU-UHFFFAOYSA-N,COCCNc1ncnc2c1nc(n2Cc1ccccc1)C=Cc1ccc(cc1)C#N,COCCNc1ncnc2c1nc(n2Cc1ccccc1)C=Cc1ccc(cc1)C#N,332.6,1.323489177,-0.6933,-7.7832,2.63613,360.8387613664251,0.686869356,-0.9065,-7.6697,66.87000,-1.096,-8.633,3.30183,NaN,NaN,369,NaN,369,NaN,NaN
ZBJKHKZRHLGTPR-UHFFFAOYSA-N,CCN(c1ccc(c(c1)O)N=Nc1nc2c(s1)cccc2)CC,CCN(c1ccc(c(c1)O)N=Nc1nc2c(s1)cccc2)CC,430.6,0.006899139,-0.7524,-7.4092,5.11204,546.908682865036,0.004266088,-1.6445,-7.6602,199.28902,-1.3,-8.256,5.48118,NaN,NaN,528,48300,528,48300,methanol
BQSVAUQXKZEZAL-UHFFFAOYSA-N,ClCc1cc(=O)oc2c1cc1nc(oc1c2)c1ccc(cc1)N(C)C,ClCc1cc(=O)oc2c1cc1nc(oc1c2)c1ccc(cc1)N(C)C,311.5,1.11422263,-0.2144,-7.539,8.41144,364.3379324287501,0.752871111,-1.1114,-7.8986,318.58670,-1.386,-8.42,7.73029,328.72230826746414,0.9711924994,361,10471.285480508985,361,10471.285480508985,NaN
ZCKLKKRXDCWDMK-UHFFFAOYSA-N,c1ccc2c(c1)c(cc(n2)c1ccc(cc1)n1c2ccccc2c2c1cccc2)c1ccc(cc1)n1c2ccccc2c2c1cccc2,c1ccc2c(c1)c(cc(n2)c1ccc(cc1)n1c2ccccc2c2c1cccc2)c1ccc(cc1)n1c2ccccc2c2c1cccc2,298.1,0.406902233,-0.2442,-7.6376,2.22943,327.3942392540366,0.513786955,-0.5227,-7.6526,26.29588,-1.034,-8.222,2.14632,NaN,NaN,341,NaN,341,NaN,NaN
KQOKGBIQONIUFI-UHFFFAOYSA-N,c1ccc(cc1)N(c1ccccc1)c1ccc(cc1)C=Cc1ccnc(n1)n1cncc1,c1ccc(cc1)N(c1ccccc1)c1ccc(cc1)C=Cc1ccnc(n1)n1cncc1,343.3,1.465175844,-0.4847,-7.3889,7.75158,361.3646120824939,0.867348107,-0.8121,-7.3631,214.01267,-1.301,-8.173,7.36939,361.9342392843281,1.3005894408,410.0,NaN,295.0,NaN,DMF
HKIQTEAVSDNYKX-UHFFFAOYSA-N,CCCOc1c(C=C(c2ccccc2)c2ccccc2)cc2c(c1C=C(c1ccccc1)c1ccccc1)n(CCC)c1c2cccc1,CCCOc1c(C=C(c2ccccc2)c2ccccc2)cc2c(c1C=C(c1ccccc1)c1ccccc1)n(CCC)c1c2cccc1,297.1,0.260123536,0.6719,-7.2384,2.38567,347.78176270828516,0.04412543,0.0572,-7.2354,61.60334,-0.263,-8.047,2.3294,NaN,NaN,476.0,NaN,316.0,NaN,THF
YHTBCJGVEUJKGH-UHFFFAOYSA-N,NCCCCNCCCNCCCN(CCCNC(=O)Cc1c[nH]c2c1cccc2)O,NCNCNCN(CNC(=O)Cc1c[nH]c2c1cccc2)O,270.2,0.081742447,1.1735,-7.9488,1.27050,303.4366089219375,0.013460449,0.0786,-7.9207,63.26513,-0.27,-8.621,4.1474,NaN,NaN,193,NaN,193,NaN,NaN
CNVNYCJQZDIFFK-UHFFFAOYSA-N,ClC1=CC(=CC=c2ccccn2C)C(=O)c2c1cccn2,ClC1=CC(=CC=c2ccccn2C)C(=O)c2c1cccn2,446.4,0.73926948,-0.748,-6.8597,8.59557,556.982023385012,0.458202923,-1.4686,-7.0958,97.02808,-1.331,-7.905,9.32544,NaN,NaN,592.0,NaN,330.0,NaN,THF
OWZKLEFHDNQOHN-IEZKXTBUSA-N,CC[C@H]1[C@]([C@@]1(C(=O)OC)c1ccc(cc1)Br)(O[Si](C(C)(C)C)(C)C)c1ccccc1,CC[C@H]1[C@]([C@@]1(C(=O)OC)c1ccc(cc1)Br)(O[Si](C(C)(C)C)(C)C)c1ccccc1,235.9,0.016106834,1.2933,-8.681,2.62696,280.1269733517932,0.01627167,0.0408,-8.7589,439.12052,-0.12,-9.185,3.61,NaN,NaN,NaN,NaN,NaN,NaN,NaN
CUPNIIZPHIYRKF-UHFFFAOYSA-N,N#CC(=Cc1ccc(s1)c1ccc(c2c1sc(n2)C)c1ccc(cc1)N(c1ccccc1)c1ccccc1)C(=O)O,N#CC(=Cc1ccc(s1)c1ccc(c2c1sc(n2)C)c1ccc(cc1)N(c1ccccc1)c1ccccc1)C(=O)O,354.9,1.937431791,-1.1068,-7.2256,3.95126,404.64816711979,0.780864353,-1.5807,-7.2619,636.46064,-1.844,-7.989,3.97871,NaN,NaN,420,NaN,420,NaN,NaN
MGGBNVXVALMVPO-UHFFFAOYSA-N,Cc1ccc(cc1)N=NC(=NNc1ccccc1)c1ccc(cc1)[N+](=O)[O-],Cc1ccc(cc1)N=NC(=NNc1ccccc1)c1ccc(cc1)[N+](=O)[O-],466.7,0.031814605,-1.0577,-7.6826,8.07168,527.3679217588416,0.001509571,-2.534,-8.0349,229.49719,-1.467,-8.59,8.9328,NaN,NaN,384,NaN,384,NaN,NaN
PWEDYGBFYOZMKD-UHFFFAOYSA-N,N#Cc1c(N)nc(c(c1c1ccccc1Cl)C#N)N,N#Cc1c(N)nc(c(c1c1ccccc1Cl)C#N)N,271.2,0.230930215,0.2751,-8.4849,3.62741,324.5659644123133,0.186991479,-0.61,-8.5298,77.14861,-0.827,-9.342,3.77175,NaN,NaN,339.0,NaN,336.0,NaN,THF
RSEYRGVDQSNVAR-UHFFFAOYSA-N,O=Cc1ccc(cc1)Oc1ccc2c3c1cccc3c(=O)n(c2=O)CCOC(=O)C,O=Cc1ccc(cc1)Oc1ccc2c3c1cccc3c(=O)n(c2=O)CCOC(=O)C,326.0,0.434327885,-0.7576,-8.4934,2.98377,361.3646120824939,0.000336464,-1.5078,-8.5209,69.22257,-1.624,-9.369,3.88597,NaN,NaN,NaN,NaN,NaN,NaN,NaN
NUQOBNDQXULIGY-UHFFFAOYSA-N,CCCCCCn1c2ccc(cc2c2c1cccc2)C(c1ccc2c(c1)c1ccccc1n2CCCCCC)c1ccc(cc1)n1c2ccccc2c2c1cccc2,Cn1c2ccc(cc2c2c1cccc2)C(c1ccc2c(c1)c1ccccc1n2C)c1ccc(cc1)n1c2ccccc2c2c1cccc2,289.7,0.063439445,0.6863,-7.4837,4.30084,331.154376083076,0.060002897,0.0254,-7.411,13.02916,-0.327,-8.052,4.15636,NaN,NaN,271,NaN,271,NaN,NaN
LEGMHGZQSAVICD-UHFFFAOYSA-N,COc1ccc(cc1)c1cnc(n1C)c1ccc(cc1)c1nc2c(s1)cc(cc2)C=O,COc1ccc(cc1)c1cnc(n1C)c1ccc(cc1)c1nc2c(s1)cc(cc2)C=O,326.3,1.872371058,-0.6376,-7.6627,7.39430,375.36844809416795,1.023763223,-1.2973,-7.6031,237.71016,-1.605,-8.696,6.7162,340.2420225280995,1.7472153425,363,19000,363,19000,NaN
XGCDBGRZEKYHNV-UHFFFAOYSA-N,c1ccc(cc1)P(c1ccccc1)CP(c1ccccc1)c1ccccc1,c1ccc(cc1)P(c1ccccc1)CP(c1ccccc1)c1ccccc1,246.9,0.003132174,0.959,-7.9903,0.20099,270.4126464678379,0.000912308,0.5002,-8.5293,18.72249,-0.683,-8.753,0.45795,NaN,NaN,431.0,NaN,411.0,NaN,THF
TZGCUOSVTVRJON-UHFFFAOYSA-N,[O-][N+](=O)c1ccc(cc1)C=Cc1c2ccccc2nc2c1cccc2,[O-][N+](=O)c1ccc(cc1)C=Cc1c2ccccc2nc2c1cccc2,364.6,0.448947455,-1.07,-8.0272,2.84219,421.28507783045757,0.000136176,-2.4758,-8.0375,191.07440,-1.559,-8.999,3.15995,NaN,NaN,386.0,NaN,373.0,NaN,NaN
CMODIHOUXMFEQD-UHFFFAOYSA-N,O=C(c1ccccc1)Oc1c(cc(cc1[N+](=O)[O-])[N+](=O)[O-])[N+](=O)[O-],O=C(c1ccccc1)Oc1c(cc(cc1[N+](=O)[O-])[N+](=O)[O-])[N+](=O)[O-],314.7,0.001741287,-1.501,-10.0186,3.80814,438.26157089255446,0.001064369,-3.4892,-9.7482,179.79622,-2.446,-10.609,4.71134,NaN,NaN,234.0,18923.43618644976,222.0,18923.43618644976,NaN
XNPGLPSGKFSMDN-UHFFFAOYSA-N,On1c(=S)sc(c1C)c1ccccc1,On1c(=S)sc(c1C)c1ccccc1,280.8,0.550932868,0.4841,-7.7682,5.43548,426.9428319748749,8.7673e-05,-0.7391,-8.4055,210.60163,-1.186,-8.244,5.31242,NaN,NaN,338.0,NaN,333.0,NaN,NaN
HESZUPIXRNZIOI-UHFFFAOYSA-N,Clc1ccc2c(c1)NC(=c1c(=N2)cccc1)N1CCNCC1,Clc1ccc2c(c1)NC(=c1c(=N2)cccc1)N1CCNCC1,484.2,0.094332622,0.0599,-6.6974,6.60639,501.351388619101,0.08423447,-0.9639,-7.2495,195.62289,-1.051,-7.827,4.96498,NaN,NaN,NaN,NaN,NaN,NaN,NaN
CSILFTAISHFSGK-UHFFFAOYSA-N,c1ccc2c(c1)n(c1ccc(cc1)C#Cc1ccc(cc1)n1c3ccccc3c3c1cccc3)c1c2cccc1,c1ccc2c(c1)n(c1ccc(cc1)C#Cc1ccc(cc1)n1c3ccccc3c3c1cccc3)c1c2cccc1,304.9,1.764762132,-0.0601,-7.5869,0.00658,340.1486924705176,1.057e-06,-0.1013,-7.4762,0.04814,-0.871,-8.22,0.00707,319.02887839137344,1.7522431238,372.0,33800.0,342.0,33800.0,CH 2 Cl 2
XGFPEOLAQHGOOH-UHFFFAOYSA-N,N#CC(c1cccs1)C#N,N#CC(c1cccs1)C#N,222.5,0.157570011,0.5573,-9.7109,4.58011,289.68270655491506,0.222905321,-0.4625,-8.8182,33.27976,-1.095,-9.582,4.3193,NaN,NaN,350.0,57512,301.0,151760,NaN
SIPJGXGZZZHQCV-UHFFFAOYSA-N,Clc1ccc(cc1)NC1=C(Br)C(=O)OC1OCc1ccccc1,Clc1ccc(cc1)NC1=C(Br)C(=O)OC1OCc1ccccc1,255.0,0.479775497,0.5062,-8.4918,5.65727,322.7914564058934,0.000143216,-0.7665,-9.096,331.67075,-0.972,-9.014,6.31919,NaN,NaN,292,NaN,292,NaN,NaN
RFRAKWAFIQEJNL-UHFFFAOYSA-N,N#CC(=Cc1cccc2c1cccc2)c1ccc(cc1)N(c1ccc2c(c1)cccc2)c1ccccc1,N#CC(=Cc1cccc2c1cccc2)c1ccc(cc1)N(c1ccc2c(c1)cccc2)c1ccccc1,336.7,0.345506904,-0.2485,-7.2863,5.02238,343.2563632489027,0.016274104,-0.4674,-7.3338,83.70800,-0.911,-8.011,4.26246,NaN,NaN,404.0,NaN,318.0,NaN,THF
HTHFQUZAXVRWDO-UHFFFAOYSA-N,CC(n1cc(n(c1=S)C)P(=S)(c1ccccc1)c1ccccc1)C,CC(n1cc(n(c1=S)C)P(=S)(c1ccccc1)c1ccccc1)C,250.3,0.178264703,0.521,-7.4634,7.27165,380.66993676850984,6.726e-06,-0.1916,-8.1337,168.01139,-0.617,-7.804,8.39416,NaN,NaN,209,NaN,209,NaN,NaN
OFHMUASCSJJNNA-JOCHJYFZSA-N,O=C([C@H](P(=O)(O)O)c1cccc2c1cccc2)c1ccc2c(c1)cccc2,O=C([C@H](P(=O)(O)O)c1cccc2c1cccc2)c1ccc2c(c1)cccc2,302.4,0.04514982,-0.3055,-8.2128,5.49737,341.64838359190867,0.010504363,-0.7099,-7.8553,280.95964,-0.771,-8.773,3.62771,NaN,NaN,NaN,NaN,NaN,NaN,NaN
WSLIWJREOJRHIZ-UHFFFAOYSA-N,CCCCCc1ccc(cc1)C#Cc1ccc(cc1)N(CCCC)CCCC,Cc1ccc(cc1)C#Cc1ccc(cc1)N(C)C,286.8,1.286909392,0.8513,-7.0732,2.54059,343.2563632489027,0.032590766,0.1482,-7.3886,12.89931,-0.216,-8.033,2.41543,301.3567473852497,1.3537094125,357.0,NaN,342.0,NaN,NaN
KBUKPDSSWJEJDQ-UHFFFAOYSA-N,CCN(c1ccc(c(c1)CC)C=C1CCC(=Cc2ccc(cc2)N(C)C)C1=O)CC,CCN(c1ccc(c(c1)CC)C=C1CCC(=Cc2ccc(cc2)N(C)C)C1=O)CC,348.1,0.137783277,0.0251,-6.989,5.56302,379.8535490364696,0.000765425,-0.5085,-7.7262,105.47473,-0.242,-7.934,4.13604,NaN,NaN,542.8,NaN,475.0,NaN,NaN
UYWWLYCGNNCLKE-UHFFFAOYSA-N,n1ccc(cc1)c1nc2c([nH]1)cccc2,n1ccc(cc1)c1nc2c([nH]1)cccc2,271.7,0.590631928,0.0027,-8.4264,3.41536,341.7425534881578,0.541343043,-0.8792,-7.9835,35.61854,-1.1,-9.188,3.80111,NaN,NaN,314,NaN,314,NaN,DMF
AHEQSESPCARAIL-UHFFFAOYSA-N,CCCn1c(N=Nc2sc3c(n2)ccc(c3)C)ccc1c1cccs1,CCCn1c(N=Nc2sc3c(n2)ccc(c3)C)ccc1c1cccs1,446.8,0.036208291,-0.8484,-7.542,2.19006,543.0757705015492,0.000758236,-1.6953,-7.3993,129.42088,-1.496,-8.574,2.34045,NaN,NaN,520.0,NaN,353.0,NaN,DMSO
IQEYWUZVEIDWOB-UHFFFAOYSA-N,c1ccc(cn1)c1ccc(cc1)c1nc2c(n1c1ccccc1)c1ccccc1c1c2cccc1,c1ccc(cn1)c1ccc(cc1)c1nc2c(n1c1ccccc1)c1ccccc1c1c2cccc1,304.5,0.67908765,0.2289,-7.4476,2.01553,367.0343351258249,0.370507102,-0.3017,-7.1053,47.75615,-0.807,-8.362,2.24399,NaN,NaN,361,NaN,361,NaN,NaN
RAPBNVDSDCTNRC-UHFFFAOYSA-N,CCOC(=O)C(c1ccc(cc1)Cl)(c1ccc(cc1)Cl)O,CCOC(=O)C(c1ccc(cc1)Cl)(c1ccc(cc1)Cl)O,237.5,0.002569862,1.0038,-8.9976,2.82292,285.61206727828534,0.012189981,-0.416,-9.1422,100.03031,-0.615,-9.737,2.38209,NaN,NaN,NaN,NaN,NaN,NaN,NaN
ZUOUZKKEUPVFJK-UHFFFAOYSA-N,c1ccc(cc1)c1ccccc1,c1ccc(cc1)c1ccccc1,246.5,0.175514775,1.0053,-8.517,0.00015,274.6659246909696,0.008145145,0.3193,-8.3325,0.00810,-0.196,-9.252,0.00122,NaN,NaN,318.0,NaN,240.0,NaN,NaN
BLJQLZPAAMAXPB-UHFFFAOYSA-N,Cc1cccc(n1)c1nc2c([nH]1)c1cccnc1c1c2cccn1,Cc1cccc(n1)c1nc2c([nH]1)c1cccnc1c1c2cccn1,301.4,0.408741986,0.1171,-7.7658,6.07953,396.7494348976117,0.610945374,-0.7648,-7.2427,58.72521,-1.171,-8.684,6.47792,NaN,NaN,304,41670,304,41670,NaN
YHWYXIQYJGFVES-UHFFFAOYSA-N,O=C1CN2C(N1)(C)C(c1c2c(cc(c1)c1ccccc1)c1ccccc1)(C)C,O=C1CN2C(N1)(C)C(c1c2c(cc(c1)c1ccccc1)c1ccccc1)(C)C,274.5,0.149515793,0.8804,-7.6886,3.57874,304.2557016085979,0.035712976,0.1167,-7.996,89.29450,-0.353,-8.659,3.52176,NaN,NaN,287.0,17700.0,230.0,11800.0,THF
DEWSTXLUNINHTJ-UHFFFAOYSA-N,CC(=C)C(Cc1c(O)cc2c(c1O)c(=O)c1c(o2)ccc(c1)O)O,CC(=C)C(Cc1c(O)cc2c(c1O)c(=O)c1c(o2)ccc(c1)O)O,312.1,0.167590185,-0.0129,-7.9553,2.05059,360.41918141134784,2.0376e-05,-1.1281,-8.4069,60.09473,-1.065,-9.038,2.15238,NaN,NaN,238,NaN,238,NaN,NaN
GMUYOSUEDPLCDU-UHFFFAOYSA-N,CSCC(=O)CC(c1ccccc1F)O,CSCC(=O)CC(c1ccccc1F)O,271.6,0.010377973,1.0468,-8.8291,1.81562,329.4823236925423,0.000304918,0.0784,-9.0389,89.38345,-0.332,-8.899,1.99428,NaN,NaN,NaN,NaN,NaN,NaN,NaN
ONVPBVZDVDSFSC-UHFFFAOYSA-N,Oc1ccc2c(c1c1nc3CCc4c(c3c3c1c1ccccc1CC3)cccc4)cccc2,Oc1ccc2c(c1c1nc3CCc4c(c3c3c1c1ccccc1CC3)cccc4)cccc2,323.5,0.472729791,0.1533,-7.4838,3.35907,358.0254068885465,0.424160924,-0.3729,-7.3757,81.86085,-0.816,-8.386,2.85057,NaN,NaN,346.0,24000.0,269.0,9000.0,dichloromethane
XFZJEEAOWLFHDH-DAIQQCIXSA-N,Oc1cc(O)c2c(c1)OC(C([C@H]2c1c(O)cc(c2c1OC(C(C2)O)c1ccc(c(c1)O)O)O)O)c1ccc(c(c1)O)O,Oc1cc(O)c2c(c1)OC(C([C@H]2c1c(O)cc(c2c1OC(C(C2)O)c1ccc(c(c1)O)O)O)O)c1ccc(c(c1)O)O,246.1,0.040526259,1.7215,-7.8664,2.87685,307.42424598438794,0.009558344,0.3137,-7.9443,45.47649,-0.145,-8.825,2.81174,NaN,NaN,NaN,NaN,NaN,NaN,NaN
KLRFNIGQRIHKOQ-UHFFFAOYSA-N,Cn1c2ccc(cc2c2c1cccc2)c1cccc2c1Oc1c(cccc1C2(C)C)c1ccc2c(c1)c1ccccc1n2C,Cn1c2ccc(cc2c2c1cccc2)c1cccc2c1Oc1c(cccc1C2(C)C)c1ccc2c(c1)c1ccccc1n2C,297.8,0.032412811,0.6867,-7.2761,1.81245,334.0091551872404,0.029903965,0.0776,-7.3345,23.62324,-0.126,-7.808,1.80067,NaN,NaN,241,NaN,241,NaN,CHCl3
WAPNOHKVXSQRPX-SSDOTTSWSA-N,C[C@H](c1ccccc1)O,C[C@H](c1ccccc1)O,232.0,0.002409043,1.6652,-9.0838,1.33856,269.1213336346943,0.006402651,0.638,-8.8356,27.58002,0.146,-9.662,1.77555,NaN,NaN,NaN,NaN,NaN,NaN,NaN
LPYVSRFVXYNNGX-UHFFFAOYSA-N,COC(=O)c1ccc(cc1)OS(=O)(=O)N,COC(=O)c1ccc(cc1)OS(=O)(=O)N,241.7,0.11866391,0.4223,-9.5591,3.70108,293.66224160469835,0.002943756,-0.969,-9.51,137.37777,-0.761,-9.85,3.18898,NaN,NaN,296,NaN,296,NaN,NaN
YCSBALJAGZKWFF-UHFFFAOYSA-N,Nc1ccc2c(c1)cc1c(c2)cccc1,Nc1ccc2c(c1)cc1c(c2)cccc1,365.5,0.108118218,0.1379,-7.0756,2.19947,377.65518856382477,0.148143096,-0.5928,-7.1508,21.66421,-0.962,-7.973,2.25367,NaN,NaN,1450.0,NaN,411.0,NaN,NaN
KZCHLMPMXJRAIT-UHFFFAOYSA-N,COc1ccc(cc1)n1c(N=Nc2ccc3c(c2)scn3)ccc1c1cccs1,COc1ccc(cc1)n1c(N=Nc2ccc3c(c2)scn3)ccc1c1cccs1,436.8,0.003015015,-0.6326,-7.3261,4.49792,516.8161667590815,0.086651195,-1.2538,-7.234,97.59129,-1.385,-8.5,5.54844,NaN,NaN,474.0,NaN,450.0,NaN,DMSO
YXQCUXJPYJLJQO-UHFFFAOYSA-N,CCCCN1c2ccc(cc2Sc2c1cccc2)C=C(C(=O)O)C#N,CN1c2ccc(cc2Sc2c1cccc2)C=C(C(=O)O)C#N,348.6,0.406265107,-0.7357,-7.6993,6.04107,363.59002464957086,0.527366844,-1.3723,-8.0134,181.57442,-1.497,-8.047,5.10605,NaN,NaN,456.0,NaN,300.0,NaN,NaN
PJFBKBGXSPNWKF-UHFFFAOYSA-N,CCCN1c2ccc(cc2Sc2c1cccc2)C=Cc1cc(=O)oc2c1ccc(c2)C,CCCN1c2ccc(cc2Sc2c1cccc2)C=Cc1cc(=O)oc2c1ccc(c2)C,344.9,0.502316115,-0.3678,-7.3028,6.48673,337.7395761522846,0.553024115,-1.0307,-7.6724,109.92543,-1.108,-7.765,7.44559,NaN,NaN,424,NaN,424,NaN,chloroform
XRYUATFJLMEXET-UHFFFAOYSA-N,COc1cc2ccccc2cc1C=Cc1cc2ccccc2c2c1OC1(C=N2)N(C)c2c(C1(C)C)cccc2,COc1cc2ccccc2cc1C=Cc1cc2ccccc2c2c1OC1(C=N2)N(C)c2c(C1(C)C)cccc2,327.3,0.203412524,0.0817,-7.6213,1.36565,350.9317815043976,0.19151076,-0.3656,-7.485,52.07794,-0.917,-8.51,2.47024,NaN,NaN,550,NaN,550,NaN,NaN
XRGROMWMFVQYPU-UHFFFAOYSA-N,Cn1ccc(c1)c1ccc(cc1)C(F)(F)F,Cn1ccc(c1)c1ccc(cc1)C(F)(F)F,255.8,0.287666505,0.9459,-8.067,5.94400,295.62279066643697,0.219038548,-0.0785,-7.9361,241.27631,-0.553,-8.944,7.40092,NaN,NaN,286,15060,286,15060,NaN
QUQPHWDTPGMPEX-QJBIFVCTSA-N,COc1ccc(cc1O)[C@@H]1CC(=O)c2c(O1)cc(cc2O)O[C@@H]1O[C@H](CO[C@@H]2O[C@@H](C)[C@@H]([C@H]([C@H]2O)O)O)[C@H]([C@@H]([C@H]1O)O)O,COc1ccc(cc1O)[C@@H]1CC(=O)c2c(O1)cc(cc2O)O[C@@H]1O[C@H](CO[C@@H]2O[C@@H](C)[C@@H]([C@H]([C@H]2O)O)O)[C@H]([C@@H]([C@H]1O)O)O,284.3,0.096246966,0.4088,-8.3132,7.55475,350.1389392982312,2.784e-05,-0.9268,-8.6099,178.84841,-0.758,-9.115,7.9373,NaN,NaN,NaN,NaN,NaN,NaN,NaN
TUKQNTJHMBTSLH-UHFFFAOYSA-N,c1ccc(cc1)c1nc2CCc3c(c2c2c1c1ccccc1CC2)cccc3,c1ccc(cc1)c1nc2CCc3c(c2c2c1c1ccccc1CC2)cccc3,289.6,0.345414492,0.3947,-7.8481,1.85666,333.2908559287733,0.351729761,-0.1125,-7.4853,23.21125,-0.656,-8.656,2.04233,NaN,NaN,318.0,NaN,263.0,NaN,Dimethylsulfoxide
WWKAPCDGIWNYHG-UHFFFAOYSA-N,CC1CCC(=CC1)c1ccc(s1)c1cccs1,CC1CCC(=CC1)c1ccc(s1)c1cccs1,305.0,0.896725092,0.4496,-7.4786,1.08461,341.64838359190867,0.452406358,-0.1626,-7.587,209.06253,-0.724,-8.922,1.14487,324.00614908597566,0.7198075284,343.0,NaN,336.0,NaN,Ethanol
GOZZJYVTRWULOT-UHFFFAOYSA-N,Oc1ccc(cc1)C=C1N=C(N(C1=O)C)C,Oc1ccc(cc1)C=C1N=C(N(C1=O)C)C,320.0,0.73959576,-0.1275,-7.65,1.88635,354.54446212611856,0.321336246,-0.7573,-7.9748,48.81904,-1.05,-8.646,4.19633,NaN,NaN,371.0,NaN,371.0,NaN,NaN
TXQUBYKQGORLOX-UHFFFAOYSA-N,Cc1cc(c(s1)C)C1=C(CC2C1=C(C(=O)C2)c1cc(sc1C)C)c1cc(sc1C)C,Cc1cc(c(s1)C)C1=C(CC2C1=C(C(=O)C2)c1cc(sc1C)C)c1cc(sc1C)C,315.7,0.713511303,-0.048,-7.5657,5.30990,382.431210380949,0.390454058,-0.7512,-7.3483,103.68536,-0.703,-8.22,4.74378,NaN,NaN,351.0,NaN,251.0,NaN,NaN
ZYGKAEXIMPCSBE-UHFFFAOYSA-N,O=c1oc(COc2ccccc2)cc2c1scc2,O=c1oc(COc2ccccc2)cc2c1scc2,274.0,0.248246785,0.1271,-8.5052,4.25106,361.575381759999,0.146692241,-1.2496,-8.5129,150.90642,-1.264,-8.812,3.27279,NaN,NaN,NaN,NaN,NaN,NaN,NaN
XCJAKCDSKCJNCC-UHFFFAOYSA-N,Cc1ccc(cc1)C=c1oc(=Cc2ccc(cc2)N(C)C)c2c1cccc2,Cc1ccc(cc1)C=c1oc(=Cc2ccc(cc2)N(C)C)c2c1cccc2,368.9,0.87535306,0.1255,-6.5922,1.80671,370.21259601523934,0.344212928,-0.3568,-7.1135,61.90066,-0.905,-7.776,1.25096,386.7616839044185,0.6940704019,405,28000.0,405,28000.0,NaN
ZADGQTHIZZOKGE-UHFFFAOYSA-N,ClC(C(c1ccccc1)c1ccccc1)(Cl)Cl,ClC(C(c1ccccc1)c1ccccc1)(Cl)Cl,234.1,0.015831631,1.0648,-8.9739,2.02405,394.4772459608771,0.031504357,-2.1691,-8.68,243.21368,-0.453,-9.751,2.72678,NaN,NaN,384.0,NaN,288.0,NaN,NaN
HZWHUTNRBWDEOL-UHFFFAOYSA-N,OC(C1CSCCC1=O)c1ccc(cc1)[N+](=O)[O-],OC(C1CSCCC1=O)c1ccc(cc1)[N+](=O)[O-],315.8,1.0104e-05,-0.4531,-9.0492,5.69708,421.28507783045757,0.000301915,-2.448,-9.7442,69.78048,-1.349,-9.106,6.34939,NaN,NaN,NaN,NaN,NaN,NaN,NaN
GOPFGMJLCHKNDE-UHFFFAOYSA-N,N#CC(=Cc1ccc(cc1)c1csc(c1)C=C(c1ccccc1)C#N)c1ccc(cc1)c1ccc2c(c1)cccc2,N#CC(=Cc1ccc(cc1)c1csc(c1)C=C(c1ccccc1)C#N)c1ccc(cc1)c1ccc2c(c1)cccc2,304.4,0.365154211,-0.4785,-8.2787,2.96852,355.3574044296465,0.384366751,-0.989,-7.9771,171.22710,-1.294,-8.928,3.54499,NaN,NaN,361.0,NaN,349.0,NaN,THF
XBSDJCDCQOOWFQ-CYBMUJFWSA-N,CC(=O)O[C@@H]1c2ccccc2C(=O)N1C(=O)C(C)(C)C,CC(=O)O[C@@H]1c2ccccc2C(=O)N1C(=O)C(C)(C)C,253.1,0.002051171,0.0834,-9.7878,2.60918,317.09513658696585,0.000861523,-0.8588,-9.4763,57.14557,-0.907,-10.264,2.59344,NaN,NaN,NaN,NaN,NaN,NaN,NaN
LDEIKDAKKYGRDR-SFHVURJKSA-N,COC(=O)[C@H](Cc1ccc2c(c1)nc(o2)c1ccc(cc1)C)NC(=O)OC(C)(C)C,COC(=O)[C@H](Cc1ccc2c(c1)nc(o2)c1ccc(cc1)C)NC(=O)OC(C)(C)C,274.2,0.861808505,0.2421,-8.2387,5.13642,342.1197527745686,0.625980276,-0.738,-7.9408,170.24608,-0.948,-9.049,5.98457,277.12157579177347,0.9250938595,342.0,15135.612484362071,304.0,12882.495516931349,methanol
DBZSNHAWKDUAHX-UHFFFAOYSA-N,N#Cc1c2cc([nH]n2c(=N)c2c1c1CCc3c(c1oc2=O)cccc3)c1ccc(cc1)OC,N#Cc1c2cc([nH]n2c(=N)c2c1c1CCc3c(c1oc2=O)cccc3)c1ccc(cc1)OC,332.3,0.350136664,-0.2164,-7.7066,6.08960,469.6371151723623,0.300273648,-1.5197,-7.718,74.24528,-1.242,-8.581,6.06379,NaN,NaN,428,10470,428,10470,DMF
CUOHNYQNNUJFPX-UHFFFAOYSA-N,c1ccc(cc1)c1cc(cc(c1)c1ccccc1)c1nnc(o1)c1cc(cc(c1)c1ccccc1)c1ccccc1,c1ccc(cc1)c1cc(cc(c1)c1ccccc1)c1nnc(o1)c1cc(cc(c1)c1ccccc1)c1ccccc1,279.0,1.426708123,0.0395,-8.3715,3.43155,356.6864165866043,0.880867798,-0.8246,-7.9676,67.04045,-1.19,-9.21,4.50846,279.74772790893377,1.022496165,260,NaN,260,NaN,NaN
SLIUAWYAILUBJU-UHFFFAOYSA-N,c1ccc2c(c1)cc1c(c2)cc2c(c1)cc1c(c2)cccc1,c1ccc2c(c1)cc1c(c2)cc2c(c1)cc1c(c2)cccc1,517.1,0.151961727,-0.9982,-6.6498,0.00016,498.3287717263009,0.217943921,-1.3165,-6.6403,0.00537,-1.731,-7.782,0.00124,NaN,NaN,582,6000,582,6000,NaN
TUZNGZLSKFHQNX-UHFFFAOYSA-N,BrCC1=C(CBr)SC(=C2c3ccccc3C(=O)c3c2cccc3)S1,BrCC1=C(CBr)SC(=C2c3ccccc3C(=O)c3c2cccc3)S1,345.1,0.371573581,-0.4537,-7.5405,5.82130,373.22154848134755,0.000954006,-1.0393,-8.305,572.85329,-1.195,-8.288,3.06216,NaN,NaN,538,NaN,538,NaN,NaN
GYJRPWRHPPKPDJ-UHFFFAOYSA-N,c1ccc(cc1)n1ccc2c1nc(nc2c1ccc(cc1)n1c2ccccc2c2c1cccc2)c1ccc(cc1)n1c2ccccc2c2c1cccc2,c1ccc(cc1)n1ccc2c1nc(nc2c1ccc(cc1)n1c2ccccc2c2c1cccc2)c1ccc(cc1)n1c2ccccc2c2c1cccc2,299.9,0.660852709,-0.1404,-7.5393,4.64065,338.1079858344796,0.598301087,-0.4723,-7.4819,37.92517,-1.195,-8.196,3.74581,NaN,NaN,342.0,NaN,210.0,NaN,NaN