inchikey,smi_pre,smi_post,lambda_sTDA (nm),f1_sTDA,lumo_dft,homo_dft,dmom_dft (D),lambda_z (nm),f1_z,lumo_z,homo_z,dmom_z (D),lumo_mopac,homo_mopac,dmom_mopac (D),lambda_tddft (nm),f1_tddft,lambda_exp_max (nm),epsilon_exp_max ,lambda_exp_min (nm),epsilon_exp_min ,solvent
NTCCNERMXRIPTR-UHFFFAOYSA-N,O=Cc1c(O)ccc2c1cccc2,O=Cc1c(O)ccc2c1cccc2,303.9,0.139967648,-0.2915,-8.3918,3.27632,344.7836440642482,0.180399165,-1.1935,-8.4413,82.73259,-1.213,-9.151,3.34081,NaN,NaN,420,NaN,420,NaN,NaN
WNBPRHILSSEJBF-UHFFFAOYSA-N,Oc1cccc2c1nc1c(c2)COc2c1cccc2,Oc1cccc2c1nc1c(c2)COc2c1cccc2,322.0,0.128736693,-0.1136,-7.9755,2.40389,341.64838359190867,0.30319497,-0.7449,-7.9893,20.74480,-1.021,-8.732,2.51722,NaN,NaN,215,NaN,215,NaN,NaN
LGWJRHFMTSZSEK-UHFFFAOYSA-N,Fc1cc(O)c2c(c1)cc1c(n2)c2ccccc2OC1,Fc1cc(O)c2c(c1)cc1c(n2)c2ccccc2OC1,319.0,0.177446426,-0.1927,-8.0782,2.93575,344.68779095219253,0.295592159,-0.9518,-8.16,108.22927,-1.197,-8.912,3.14627,NaN,NaN,220,NaN,220,NaN,NaN
HIUNPGDMXCLHFT-UHFFFAOYSA-N,Clc1cc(O)c2c(c1)cc1c(n2)c2ccccc2OC1,Clc1cc(O)c2c(c1)cc1c(n2)c2ccccc2OC1,321.5,0.213231371,-0.2951,-8.1103,3.28547,342.87665488247694,0.311226922,-1.0132,-8.2505,194.01637,-1.254,-8.92,3.54119,NaN,NaN,220,NaN,220,NaN,NaN
NWGITRZGNQFSLU-UHFFFAOYSA-N,Brc1ccc2c(c1)c1nc3c(O)cccc3cc1CO2,Brc1ccc2c(c1)c1nc3c(O)cccc3cc1CO2,325.5,0.128359088,-0.3046,-8.0919,3.99473,346.42134228975596,0.323920656,-0.9536,-8.1385,343.37828,-1.214,-8.818,4.34038,NaN,NaN,215,NaN,215,NaN,NaN
LWLAIWHZEOYBSO-UHFFFAOYSA-N,Brc1ccc2c(c1)c1nc3c(O)cc(cc3cc1CO2)F,Brc1ccc2c(c1)c1nc3c(O)cc(cc3cc1CO2)F,327.5,0.232284076,-0.4162,-8.1222,3.92645,349.4481353029979,0.31266461,-1.1542,-8.3082,268.24226,-1.376,-8.97,3.91932,NaN,NaN,220,NaN,220,NaN,NaN
QATFBVUDFNDLKB-UHFFFAOYSA-N,Oc1cccc2c1nc1c(c2)CCOc2c1cccc2,Oc1cccc2c1nc1c(c2)CCOc2c1cccc2,310.7,0.061599055,0.156,-7.9607,3.58328,329.92069825839184,0.146872839,-0.532,-8.0041,46.92751,-0.891,-8.674,3.18238,NaN,NaN,215,NaN,215,NaN,NaN
WMRKWLJGMWDGLX-UHFFFAOYSA-N,Fc1cc(O)c2c(c1)cc1c(n2)c2ccccc2OCC1,Fc1cc(O)c2c(c1)cc1c(n2)c2ccccc2OCC1,305.5,0.079356639,0.077,-8.1208,4.21906,333.11176358276106,0.145786373,-0.7497,-8.205,127.92390,-1.079,-8.866,3.65718,NaN,NaN,220,NaN,220,NaN,NaN
XJHABGPPCLHLLV-UHFFFAOYSA-N,O=c1[nH]c(=O)c2c3c1cccc3ccc2,O=c1[nH]c(=O)c2c3c1cccc3ccc2,306.6,0.204147398,-0.8575,-8.8919,4.76463,324.65095157241075,0.345787083,-1.64,-8.9041,84.74901,-1.747,-9.777,5.29205,NaN,NaN,360.0,NaN,351.0,NaN,NaN
RFHAOTPXVQNOHP-UHFFFAOYSA-N,Fc1ccc(c(c1)F)C(Cn1cncn1)(Cn1cncn1)O,Fc1ccc(c(c1)F)C(Cn1cncn1)(Cn1cncn1)O,230.8,0.017396695,1.0144,-9.5191,2.03063,279.74774008462015,0.007122399,-0.2037,-9.2676,45.27389,-0.95,-10.265,2.96656,NaN,NaN,1601,NaN,1601,NaN,NaN
DQRZXLUCRJNWKV-OAHLLOKOSA-N,O(CC1CC1)CCc1ccc(cc1)OC[C@H]1OC1,O(CC1CC1)CCc1ccc(cc1)OC[C@H]1OC1,245.9,0.044519914,1.8004,-8.1836,2.00076,282.0386678924105,0.034374564,0.6645,-8.3368,119.83302,0.066,-8.943,1.60361,NaN,NaN,225,NaN,225,NaN,NaN
DWKRVJWRHNPLHC-UHFFFAOYSA-N,CCOC(=O)c1ccc(cc1)NC(=O)CN(C)C,CCOC(=O)c1ccc(cc1)NC(=O)CN(C)C,258.5,0.378640173,0.6619,-8.498,3.38806,304.5546509592328,0.000486191,-0.6115,-8.7956,56.09252,-0.478,-9.024,5.20869,NaN,NaN,463.0,NaN,366.0,NaN,NaN
QNQFINODOCGQCK-UHFFFAOYSA-N,CCOC(=O)c1ccc(cc1)NC(=O)CCN(C)C.[Cl-].[H+],CCOC(=O)c1ccc(cc1)NC(=O)CCN(C)C.[Cl-].[H+],NaN,NaN,NaN,NaN,NaN,NaN,NaN,NaN,Nan,NaN,NaN,NaN,NaN,NaN,NaN,456.0,NaN,368.0,NaN,NaN
PGYAYSRVSAJXTE-HPJQNRMISA-N,CC(=CC=CC=C(C=CC=C(C=C=C1C(C)(C)C[C@@H](C[C@@]1(C)O)O)C)C)C=CC=C(C=C[C@]12O[C@]2(C)C[C@H](CC1(C)C)O)C,CC(=CC=CC=C(C=CC=C(C=C=C1C(C)(C)C[C@@H](C[C@@]1(C)O)O)C)C)C=CC=C(C=C[C@]12O[C@]2(C)C[C@H](CC1(C)C)O)C,NaN,NaN,NaN,NaN,NaN,NaN,NaN,NaN,Nan,NaN,NaN,NaN,NaN,NaN,NaN,414,NaN,414,NaN,NaN
FDSDTBUPSURDBL-UHFFFAOYSA-N,CC(=CC=CC=C(C=CC=C(C=CC1=C(C)C(=O)CCC1(C)C)C)C)C=CC=C(C=CC1=C(C)C(=O)CCC1(C)C)C,CC(=CC=CC=C(C=CC=C(C=CC1=C(C)C(=O)CCC1(C)C)C)C)C=CC=C(C=CC1=C(C)C(=O)CCC1(C)C)C,NaN,NaN,NaN,NaN,NaN,NaN,NaN,NaN,Nan,NaN,NaN,NaN,NaN,NaN,NaN,474,NaN,474,NaN,NaN
SJWWTRQNNRNTPU-BUCUEIECSA-N,CC(=CC=CC=C(C=CC=C(C(=O)C[C@]12O[C@]2(C)C[C@H](CC1(C)C)O)C)C)C=CC=C(C=C=C1C(C)(C)C[C@@H](C[C@@]1(C)O)OC(=O)C)C,CC(=CC=CC=C(C=CC=C(C(=O)C[C@]12O[C@]2(C)C[C@H](CC1(C)C)O)C)C)C=CC=C(C=C=C1C(C)(C)C[C@@H](C[C@@]1(C)O)OC(=O)C)C,NaN,NaN,NaN,NaN,NaN,NaN,NaN,NaN,Nan,NaN,NaN,NaN,NaN,NaN,NaN,452,NaN,452,NaN,NaN
OGHZCSINIMWCSB-MFKHVKNHSA-N,CC(=CC=CC=C(C=CC=C(C#CC1=C(C)C[C@H](CC1(C)C)O)C)C)C=CC=C(C=C[C@]12O[C@]2(C)C[C@H](CC1(C)C)O)C,CC(=CC=CC=C(C=CC=C(C#CC1=C(C)C[C@H](CC1(C)C)O)C)C)C=CC=C(C=C[C@]12O[C@]2(C)C[C@H](CC1(C)C)O)C,NaN,NaN,NaN,NaN,NaN,NaN,NaN,NaN,Nan,NaN,NaN,NaN,NaN,NaN,NaN,421,NaN,421,NaN,NaN
QXNWZXMBUKUYMD-UHFFFAOYSA-N,CC(=CC=CC=C(C=CC=C(C=CC1=C(C)C(=O)CCC1(C)C)C)C)C=CC=C(C=CC1=C(C)CCCC1(C)C)C,CC(=CC=CC=C(C=CC=C(C=CC1=C(C)C(=O)CCC1(C)C)C)C)C=CC=C(C=CC1=C(C)CCCC1(C)C)C,NaN,NaN,NaN,NaN,NaN,NaN,NaN,NaN,Nan,NaN,NaN,NaN,NaN,NaN,NaN,466,NaN,466,NaN,NaN
KBPHJBAIARWVSC-QOEXFKEZSA-N,CC(=CC=CC=C(C=CC=C(C=CC1=C(C)C[C@H](CC1(C)C)O)C)C)C=CC=C(C=C[C@H]1C(=C[C@@H](CC1(C)C)O)C)C,CC(=CC=CC=C(C=CC=C(C=CC1=C(C)C[C@H](CC1(C)C)O)C)C)C=CC=C(C=C[C@H]1C(=C[C@@H](CC1(C)C)O)C)C,NaN,NaN,NaN,NaN,NaN,NaN,NaN,NaN,Nan,NaN,NaN,NaN,NaN,NaN,NaN,418,NaN,418,NaN,NaN
SZCBXWMUOPQSOX-PUJYBPSASA-N,CC(=CC=CC=C(C=CC=C(C=C[C@]12O[C@]2(C)C[C@H](CC1(C)C)O)C)C)C=CC=C(C=C[C@]12O[C@]2(C)C[C@H](CC1(C)C)O)C,CC(=CC=CC=C(C=CC=C(C=C[C@]12O[C@]2(C)C[C@H](CC1(C)C)O)C)C)C=CC=C(C=C[C@]12O[C@]2(C)C[C@H](CC1(C)C)O)C,NaN,NaN,NaN,NaN,NaN,NaN,NaN,NaN,Nan,NaN,NaN,NaN,NaN,NaN,NaN,416,NaN,416,NaN,NaN
JKQXZKUSFCKOGQ-LQFQNGICSA-N,O[C@@H]1CC(=C(C(C1)(C)C)C=CC(=CC=CC(=CC=CC=C(C=CC=C(C=CC1=C(C)C[C@H](CC1(C)C)O)C)C)C)C)C,O[C@@H]1CC(=C(C(C1)(C)C)C=CC(=CC=CC(=CC=CC=C(C=CC=C(C=CC1=C(C)C[C@H](CC1(C)C)O)C)C)C)C)C,NaN,NaN,NaN,NaN,NaN,NaN,NaN,NaN,Nan,NaN,NaN,NaN,NaN,NaN,NaN,422,NaN,422,NaN,NaN
UKHVKOPXBMEBTD-UHFFFAOYSA-N,O=C1C=CC(=CC2=c3[nH]c4c(c3=C(C2=O)C2=c3c(=C(C2=O)C=C2C=CC(=O)C=C2)[nH]c2c3cccc2)cccc4)C=C1,O=C1C=CC(=CC2=c3[nH]c4c(c3=C(C2=O)C2=c3c(=C(C2=O)C=C2C=CC(=O)C=C2)[nH]c2c3cccc2)cccc4)C=C1,782.0,0.640010012,-2.4579,-7.305,8.31507,712.1435864761842,0.399342381,-2.5532,-7.6528,100.48686,-2.588,-8.58,7.32925,NaN,NaN,388,NaN,388,NaN,NaN
BLDUBDIOCHHVBU-APWZRJJASA-N,Cc1ccc(cc1)S(=O)(=O)N1CCC[C@H]1C(=O)N1[C@H](C)COc2c1cccc2,Cc1ccc(cc1)S(=O)(=O)N1CCC[C@H]1C(=O)N1[C@H](C)COc2c1cccc2,253.2,0.075499635,0.9485,-8.2588,4.21745,301.95859329153353,0.003972449,-0.4245,-8.4702,132.41364,-0.42,-8.51,5.52994,NaN,NaN,254,NaN,254,NaN,NaN
WANZPOQEQVYVEZ-UHFFFAOYSA-N,CS(=O)(=O)n1c2ccccc2c2c1cccc2,CS(=O)(=O)n1c2ccccc2c2c1cccc2,266.1,0.030945088,0.5435,-8.4931,4.04301,338.29249223875485,0.000389419,-0.4782,-8.1542,136.98677,-0.45,-8.649,4.42546,NaN,NaN,254,NaN,254,NaN,NaN
NOSUTGMOPYMSMD-UHFFFAOYSA-N,CCOP(=O)(C(=C)c1ccccc1)OCC,CCOP(=O)(C(=C)c1ccccc1)OCC,239.0,0.050218393,0.912,-8.9963,2.09414,269.8828872562117,0.004596557,0.5656,-8.8379,65.56152,-0.018,-9.147,1.9398,NaN,NaN,254,NaN,254,NaN,NaN
DXGFUWNYEWXPCU-UHFFFAOYSA-N,CCOP(=O)(C(=C)c1cccc2c1cccc2)OCC,CCOP(=O)(C(=C)c1cccc2c1cccc2)OCC,290.6,0.10117896,0.5116,-8.1838,2.59217,315.00050407902353,0.00350794,-0.246,-7.9848,109.09120,-0.471,-8.652,2.33474,NaN,NaN,254,NaN,254,NaN,NaN
IUNVMTQMGSZTAC-UHFFFAOYSA-N,CCOP(=O)(C(=C)c1ccc2c(c1)cccc2)OCC,CCOP(=O)(C(=C)c1ccc2c(c1)cccc2)OCC,289.1,0.047204933,0.3811,-8.2644,2.83600,315.7224303679747,0.004708564,-0.2749,-8.0961,139.20330,-0.503,-8.768,2.16572,NaN,NaN,254,NaN,254,NaN,NaN
ISWSIDIOOBJBQZ-UHFFFAOYSA-N,Oc1ccccc1,Oc1ccccc1,239.6,0.035225853,1.704,-8.4925,1.33963,272.1936298693824,0.014885828,0.5743,-8.7613,31.57331,0.036,-9.235,1.30688,NaN,NaN,324,NaN,324,NaN,NaN
PJBKWXIXRDXEDP-UHFFFAOYSA-N,CC(=O)Oc1ccc2c(c1)c1ccccc1o2,CC(=O)Oc1ccc2c(c1)c1ccccc1o2,265.7,0.077034131,0.5659,-8.4195,1.69579,304.2557016085979,0.216508959,-0.1442,-8.0309,44.65369,-0.715,-8.967,2.09301,NaN,NaN,284,NaN,284,NaN,NaN
BXFJCGGJPBMBFT-UHFFFAOYSA-N,CC(=O)c1cc2oc3c(c2cc1O)cccc3,CC(=O)c1cc2oc3c(c2cc1O)cccc3,319.8,0.160964391,-0.3304,-8.2097,3.07373,357.818754417038,8.9548e-05,-1.0808,-8.4172,68.93212,-1.291,-8.981,3.09307,NaN,NaN,365,NaN,365,NaN,NaN
PYFVVRGWNYMJHN-UHFFFAOYSA-N,Oc1ccc2c(c1)c1cc(ccc1o2)C(=O)C,Oc1ccc2c(c1)c1cc(ccc1o2)C(=O)C,287.5,6.8656e-05,0.3664,-8.2844,3.28236,312.2241208902132,0.047863421,-0.6929,-8.3346,18.41193,-0.97,-9.0,1.97411,NaN,NaN,326,NaN,326,NaN,NaN
DZTLALDGRGMQIF-UHFFFAOYSA-N,CC(=O)c1c(O)ccc2c1c1ccccc1o2,CC(=O)c1c(O)ccc2c1c1ccccc1o2,319.7,0.21786673,-0.3205,-8.1891,3.01709,349.54665465323836,0.008398325,-0.9541,-8.2718,70.23487,-1.221,-8.965,3.24058,NaN,NaN,302,NaN,302,NaN,NaN
VYFYXWBNGHYVHL-UHFFFAOYSA-N,CC(=O)Oc1ccc2c(c1)c1cc(ccc1o2)C(=O)C,CC(=O)Oc1ccc2c(c1)c1cc(ccc1o2)C(=O)C,288.2,6.3645e-05,0.3293,-8.6653,4.45864,355.8673892236041,9.092e-06,-0.5951,-8.3124,16.22323,-0.902,-9.192,5.3862,NaN,NaN,292,NaN,292,NaN,NaN
VHYCDWMUTMEGQY-UHFFFAOYSA-N,OC(COc1ccc(cc1)COCCOC(C)C)CNC(C)C,OC(COc1ccc(cc1)COCCOC(C)C)CNC(C)C,245.6,0.043252696,1.849,-8.183,0.91460,279.49548783927787,0.026409661,0.7721,-8.321,19.26392,0.331,-8.779,0.7826,NaN,NaN,770,NaN,770,NaN,NaN
ZPBWCRDSRKPIDG-UHFFFAOYSA-N,OS(=O)(=O)c1ccccc1.NCCOCC1=C(C(=O)OCC)C(C(=C(N1)C)C(=O)OC)c1ccccc1Cl,OS(=O)(=O)c1ccccc1.NCCOCC1=C(C(=O)OCC)C(C(=C(N1)C)C(=O)OC)c1ccccc1Cl,NaN,NaN,NaN,NaN,NaN,NaN,NaN,NaN,Nan,NaN,NaN,NaN,NaN,NaN,NaN,610,NaN,610,NaN,NaN
CZRQXSDBMCMPNJ-ZUIPZQNBSA-N,NCCCC[C@@H](C(=O)N1CCC[C@H]1C(=O)O)N[C@H](C(=O)O)CCc1ccccc1.O.O,NCCCC[C@@H](C(=O)N1CCC[C@H]1C(=O)O)N[C@H](C(=O)O)CCc1ccccc1.O.O,NaN,NaN,NaN,NaN,NaN,NaN,NaN,NaN,Nan,NaN,NaN,NaN,NaN,NaN,NaN,481,NaN,481,NaN,NaN
YGULWPYYGQCFMP-CEAXSRTFSA-N,O[C@H]([C@H](C(=O)O)O)C(=O)O.COCCc1ccc(cc1)OCC(CNC(C)C)O.COCCc1ccc(cc1)OCC(CNC(C)C)O,O[C@H]([C@H](C(=O)O)O)C(=O)O.COCCc1ccc(cc1)OCC(CNC(C)C)O.COCCc1ccc(cc1)OCC(CNC(C)C)O,NaN,NaN,NaN,NaN,NaN,NaN,NaN,NaN,Nan,NaN,NaN,NaN,NaN,NaN,NaN,675,NaN,675,NaN,NaN
HYIMSNHJOBLJNT-UHFFFAOYSA-N,COC(=O)C1=C(C)NC(=C(C1c1ccccc1[N+](=O)[O-])C(=O)OC)C,COC(=O)C1=C(C)NC(=C(C1c1ccccc1[N+](=O)[O-])C(=O)OC)C,323.7,0.023854941,-0.1012,-8.1166,4.58032,451.67285393626105,0.025274458,-2.3145,-8.3743,105.17399,-0.776,-8.898,6.2253,NaN,NaN,685,NaN,685,NaN,NaN
JLWSQVHJLLYDPX-UHFFFAOYSA-N,OC(=O)C=CC(=O)O.OC(=O)C=CC(=O)O.OCCOCCN1CCN(CC1)C1=Nc2ccccc2Sc2c1cccc2,OC(=O)C=CC(=O)O.OC(=O)C=CC(=O)O.OCCOCCN1CCN(CC1)C1=Nc2ccccc2Sc2c1cccc2,NaN,NaN,NaN,NaN,NaN,NaN,NaN,NaN,Nan,NaN,NaN,NaN,NaN,NaN,NaN,520,NaN,520,NaN,NaN
DTGLZDAWLRGWQN-UHFFFAOYSA-N,CC(=O)Oc1sc2c(c1)CN(CC2)C(c1ccccc1F)C(=O)C1CC1,CC(=O)Oc1sc2c(c1)CN(CC2)C(c1ccccc1F)C(=O)C1CC1,266.7,0.017649901,0.9313,-8.2931,4.38964,331.59721424312295,0.004112404,-0.0579,-7.9691,148.00167,-0.399,-8.777,3.6536,NaN,NaN,418,NaN,418,NaN,NaN
HDACQVRGBOVJII-JBDAPHQKSA-N,CCOC(=O)[C@@H](N[C@H](C(=O)N1[C@H]2CCC[C@H]2C[C@H]1C(=O)O)C)CCc1ccccc1,CCOC(=O)[C@@H](N[C@H](C(=O)N1[C@H]2CCC[C@H]2C[C@H]1C(=O)O)C)CCc1ccccc1,232.6,0.005542809,1.5071,-9.0536,7.24239,284.2370435706182,0.001780545,-0.1365,-8.9407,111.95826,0.186,-9.238,3.44619,NaN,NaN,523,NaN,523,NaN,NaN
DOQPXTMNIUCOSY-UHFFFAOYSA-N,COc1ccc(cc1OC)CCN(CCCC(c1ccc(c(c1)OC)OC)(C(C)C)C#N)C.[Cl-].[H+],COc1ccc(cc1OC)CCN(CCCC(c1ccc(c(c1)OC)OC)(C(C)C)C#N)C.[Cl-].[H+],NaN,NaN,NaN,NaN,NaN,NaN,NaN,NaN,Nan,NaN,NaN,NaN,NaN,NaN,NaN,420,NaN,420,NaN,NaN
YXFVVABEGXRONW-UHFFFAOYSA-N,Cc1ccccc1,Cc1ccccc1,231.5,0.001926781,1.8049,-8.9274,0.38284,268.88787335828164,0.006978548,0.7349,-8.7482,10.17705,0.317,-9.426,0.64714,NaN,NaN,336,NaN,336,NaN,toluene
HNYLQMDTLZPZPT-UHFFFAOYSA-N,COC(=O)C1=C(SC(=c2ccc3=C4C=CC(OC4C=Cc3c2)(c2ccccc2)c2ccccc2)S1)C(=O)OC,COC(=O)C1=C(SC(=c2ccc3=C4C=CC(OC4C=Cc3c2)(c2ccccc2)c2ccccc2)S1)C(=O)OC,419.6,1.27164946,-0.6207,-6.5219,3.63673,416.19401948809553,1.248412686,-1.1522,-6.9931,604.60687,-1.689,-7.704,4.0561,447.9521389162492,1.227414972,327,NaN,327,NaN,toluene
VCMLCMCXCRBSQO-UHFFFAOYSA-N,C1=Cc2c(OC1)ccc1c2cccc1,C1=Cc2c(OC1)ccc1c2cccc1,325.8,0.182821149,0.4352,-7.5827,0.93407,347.00307418276986,0.222047651,-0.3338,-7.4782,34.67498,-0.746,-8.33,0.74107,NaN,NaN,345,NaN,345,NaN,toluene
XGTFFRCLROZLAD-LLVKDONJSA-N,OCCc1ccc(cc1)OC[C@@H]1CO1,OCCc1ccc(cc1)OC[C@@H]1CO1,246.7,0.04458852,1.4707,-8.4565,1.72370,281.59027573359907,0.032412085,0.4524,-8.5626,52.94460,-0.075,-9.055,1.68127,NaN,NaN,225,NaN,225,NaN,NaN
PDEWNIOOICWGRC-UHFFFAOYSA-N,CCc1c(C)cnc2c1C(=O)c1c(C2=O)ncc(c1CC)C,CCc1c(C)cnc2c1C(=O)c1c(C2=O)ncc(c1CC)C,365.2,0.000579838,-0.8666,-9.471,6.19935,398.5348711202303,0.000329432,-1.4166,-9.0006,132.03750,-1.399,-10.049,7.1267,NaN,NaN,254,NaN,254,NaN,NaN
DZXSFEDFDGEUPD-SNVBAGLBSA-N,CC(=O)C[C@H](c1ccc(cc1[N+](=O)[O-])[N+](=O)[O-])O,CC(=O)C[C@H](c1ccc(cc1[N+](=O)[O-])[N+](=O)[O-])O,318.3,0.011214389,-1.0373,-10.0687,4.75078,438.4165431594896,0.007153131,-3.1479,-10.4705,98.04494,-2.087,-10.885,4.57956,NaN,NaN,210,NaN,210,NaN,NaN
MGDZBHOJCNYTAP-LLVKDONJSA-N,N#Cc1cccc(c1)[C@@H](CC(=O)C)O,N#Cc1cccc(c1)[C@@H](CC(=O)C)O,256.8,1.319e-05,0.3858,-9.5798,3.72235,331.95233843508345,9.96e-06,-0.3142,-9.1723,32.33440,-0.804,-10.197,3.30027,NaN,NaN,210,NaN,210,NaN,NaN
UYBTWIFVVMOWCQ-NSHDSACASA-N,NC[C@@](C(=O)O)(Cc1ccccc1)C,NC[C@@](C(=O)O)(Cc1ccccc1)C,233.6,0.003928435,1.818,-8.8813,1.46700,275.1535694751524,0.001911623,0.1865,-8.7618,57.91759,0.358,-9.409,3.06045,NaN,NaN,254,NaN,254,NaN,NaN
CPCHVLBDLZEKTD-UHFFFAOYSA-N,NCCNCCc1ccccc1,NCCNCCc1ccccc1,232.7,0.00052309,1.647,-8.7455,1.95692,270.53065329588406,0.009440192,0.6921,-8.7166,15.81528,0.194,-9.157,3.04769,NaN,NaN,254,NaN,254,NaN,NaN
POAYMYIIBFHCCO-UHFFFAOYSA-N,O=CC1=C(C#CC(O)(C)C)c2c(OC1)cccc2,O=CC1=C(C#CC(O)(C)C)c2c(OC1)cccc2,NaN,NaN,NaN,NaN,NaN,NaN,NaN,NaN,Nan,NaN,NaN,NaN,NaN,NaN,NaN,210,NaN,210,NaN,NaN
VSPXYNXWJIEOQH-UHFFFAOYSA-N,OCCC#CC1=C(C=O)COc2c1cccc2,OCCC#CC1=C(C=O)COc2c1cccc2,338.7,0.046615948,-0.7169,-8.486,3.54115,383.73320459765915,0.000627911,-1.3006,-8.3005,58.53689,-1.291,-8.939,3.53488,NaN,NaN,210,NaN,210,NaN,NaN
CKGBBZQGPIWQSS-UHFFFAOYSA-N,OCCCC#CC1=C(C=O)COc2c1cccc2,OC#CC1=C(C=O)COc2c1cccc2,334.1,0.028168387,-0.4779,-8.3018,5.56693,381.3724958643607,0.001977013,-1.3203,-8.3211,74.27573,-1.196,-8.881,5.50714,NaN,NaN,210,NaN,210,NaN,NaN
ORQBKBKNGPDGGE-UHFFFAOYSA-N,O=CC1=C(C#CC(O)C)c2c(OC1)cccc2,O=CC1=C(C#CC(O)C)c2c(OC1)cccc2,NaN,NaN,NaN,NaN,NaN,NaN,NaN,NaN,Nan,NaN,NaN,NaN,NaN,NaN,NaN,210,NaN,210,NaN,NaN
FIQUKRDZQSCDMI-UHFFFAOYSA-N,O=CC1=C(C#CC2(O)CCCCC2)c2c(OC1)cccc2,O=CC1=C(C#CC2(O)CCCCC2)c2c(OC1)cccc2,NaN,NaN,NaN,NaN,NaN,NaN,NaN,NaN,Nan,NaN,NaN,NaN,NaN,NaN,NaN,210,NaN,210,NaN,NaN
QHUCPQCHUXSFPD-UHFFFAOYSA-N,ClCCCC#CC1=C(C=O)COc2c1cccc2,ClC#CC1=C(C=O)COc2c1cccc2,340.7,0.059480797,-0.8,-8.5038,3.50425,379.9699614020952,0.000101166,-1.5464,-8.5403,147.86276,-1.446,-9.017,3.0951,NaN,NaN,210,NaN,210,NaN,NaN
UFNOBRPQAFKOMQ-UHFFFAOYSA-N,CCCCC#CC1=C(C=O)COc2c1cccc2,C#CC1=C(C=O)COc2c1cccc2,341.3,0.056780555,-0.7705,-8.5063,3.56547,376.9662462921972,0.000122067,-1.3601,-8.3911,62.35386,-1.34,-8.991,3.42173,NaN,NaN,210,NaN,210,NaN,NaN
KWEZZZYLZZABGK-UHFFFAOYSA-N,CCCCCCC#CC1=C(C=O)COc2c1cccc2,C#CC1=C(C=O)COc2c1cccc2,341.1,0.053535284,-0.7673,-8.5129,3.57273,376.85166688602936,9.3923e-05,-1.3596,-8.392,62.36386,-1.339,-8.992,3.42781,NaN,NaN,210,NaN,210,NaN,NaN
XYHQNMLDOKNZNI-UHFFFAOYSA-N,O=CC1=C(C#Cc2ccccc2)c2c(OC1)cccc2,O=CC1=C(C#Cc2ccccc2)c2c(OC1)cccc2,340.1,0.055662093,-0.8193,-8.2824,4.45789,397.8953735735034,0.001595178,-1.3677,-8.0672,95.38783,-1.442,-8.882,4.24271,NaN,NaN,210,NaN,210,NaN,NaN
NPDICXFMWJNANV-UHFFFAOYSA-N,CCCCC#CC1=C(C=O)CCOc2c1cccc2,C#CC1=C(C=O)CCOc2c1cccc2,331.9,0.001124647,-0.5346,-8.8489,3.11179,373.89685888270105,0.000355318,-1.1398,-8.5374,53.49416,-1.107,-9.067,2.4077,NaN,NaN,210,NaN,210,NaN,NaN
KIQQMECNKUGGKA-GOMYTPFNSA-N,ON=C1CC[C@H]2C(=C1)CC[C@@H]1[C@@H]2CC[C@]2([C@H]1CC[C@]2(C#C)OC(=O)C)CC,ON=C1CC[C@H]2C(=C1)CC[C@@H]1[C@@H]2CC[C@]2([C@H]1CC[C@]2(C#C)OC(=O)C)CC,NaN,NaN,NaN,NaN,NaN,NaN,NaN,NaN,Nan,NaN,NaN,NaN,NaN,NaN,NaN,753,NaN,753,NaN,NaN
MCCICLHYQKULJG-UHFFFAOYSA-N,Clc1cccc(c1C)n1c(C)nc2c(c1=O)cccc2,Clc1cccc(c1C)n1c(C)nc2c(c1=O)cccc2,266.2,0.10700076,0.6115,-8.5945,2.14599,312.2241208902132,0.113434042,-0.5517,-8.558,147.54740,-0.722,-9.139,1.9246,NaN,NaN,814,NaN,814,NaN,NaN
XHXMPURWMSJENN-UHFFFAOYSA-N,O=c1cc(C)c2c(o1)c1CCCN3c1c(c2)CCC3,O=c1cc(C)c2c(o1)c1CCCN3c1c(c2)CCC3,302.0,0.436352067,0.5287,-7.3699,6.82831,356.17408332520444,0.395688965,-0.8104,-7.8664,113.56939,-0.496,-8.07,7.45259,NaN,NaN,923,NaN,923,NaN,NaN
ZWIKJILDMNXRAR-UHFFFAOYSA-N,Clc1ccnc2c1ccn2S(=O)(=O)c1ccccc1,Clc1ccnc2c1ccn2S(=O)(=O)c1ccccc1,259.4,0.146970918,0.3146,-8.7934,4.37569,335.00188707242273,0.000301925,-0.7858,-8.663,126.64363,-0.805,-9.246,4.71332,NaN,NaN,220,NaN,220,NaN,NaN
IHLVGYHKCOYSKP-UHFFFAOYSA-N,OCCC#Cc1cc2c(n1S(=O)(=O)c1ccccc1)nccc2Cl,OCCC#Cc1cc2c(n1S(=O)(=O)c1ccccc1)nccc2Cl,278.2,0.561548887,0.0171,-8.3314,3.79400,393.10145340996723,0.000979947,-0.8612,-7.9481,107.59025,-0.911,-8.887,3.46729,NaN,NaN,220,NaN,220,NaN,NaN
CNFAEFOVZRSAMO-UHFFFAOYSA-N,CC(C#Cc1cc2c(n1S(=O)(=O)c1ccccc1)nccc2Cl)O,CC(C#Cc1cc2c(n1S(=O)(=O)c1ccccc1)nccc2Cl)O,277.9,0.55977177,-0.0209,-8.387,5.67787,393.22612878370967,0.00340819,-0.8436,-7.9439,134.72477,-0.972,-8.987,4.05927,NaN,NaN,220,NaN,220,NaN,NaN
GAZDPEKXLXEFJG-UHFFFAOYSA-N,Clc1ccnc2c1cc(n2S(=O)(=O)c1ccccc1)C#CC(O)(C)C,Clc1ccnc2c1cc(n2S(=O)(=O)c1ccccc1)C#CC(O)(C)C,277.6,0.560741856,0.0322,-8.3586,3.54391,395.61007787333654,0.001646777,-0.8338,-7.913,132.12502,-0.955,-8.972,4.27699,NaN,NaN,220,NaN,220,NaN,NaN
DVWKNKMKWVGROZ-UHFFFAOYSA-N,OCCCC#Cc1cc2c(n1S(=O)(=O)c1ccccc1)nccc2Cl,OC#Cc1cc2c(n1S(=O)(=O)c1ccccc1)nccc2Cl,277.0,0.484430598,0.2422,-8.0452,3.74897,392.7279011894319,0.00040525,-0.8742,-7.9433,133.36280,-0.821,-8.699,5.09316,NaN,NaN,220,NaN,220,NaN,NaN
DXQFXTOCHWHWAN-UHFFFAOYSA-N,CC(CC#Cc1cc2c(n1S(=O)(=O)c1ccccc1)nccc2Cl)O,CC(CC#Cc1cc2c(n1S(=O)(=O)c1ccccc1)nccc2Cl)O,278.8,0.568645248,0.0322,-8.3074,3.70118,394.1010756691153,0.002321148,-0.8537,-7.9162,126.83650,-0.882,-8.846,3.20347,NaN,NaN,220,NaN,220,NaN,NaN
SUQLSXIQQLNFDK-UHFFFAOYSA-N,Clc1ccnc2c1cc(n2S(=O)(=O)c1ccccc1)C#Cc1ccccc1,Clc1ccnc2c1cc(n2S(=O)(=O)c1ccccc1)C#Cc1ccccc1,302.7,1.246378236,-0.2488,-7.9601,4.20310,402.8076621361393,0.055860762,-0.8891,-7.5541,203.20732,-1.034,-8.671,4.57605,NaN,NaN,220,NaN,220,NaN,NaN
NPNRJDODSWRLHN-UHFFFAOYSA-N,Cc1ccc(cc1)C#Cc1cc2c(n1S(=O)(=O)c1ccccc1)nccc2Cl,Cc1ccc(cc1)C#Cc1cc2c(n1S(=O)(=O)c1ccccc1)nccc2Cl,305.1,1.326252507,-0.1877,-7.8383,4.27457,404.5161448792942,0.066064844,-0.8602,-7.4381,258.61365,-0.974,-8.554,4.55639,319.5715983432725,1.1460659659,220,NaN,220,NaN,NaN
DNERJGLGOJDCTQ-UHFFFAOYSA-N,Nc1cccc(c1)C#Cc1cc2c(n1S(=O)(=O)c1ccccc1)nccc2Cl,Nc1cccc(c1)C#Cc1cc2c(n1S(=O)(=O)c1ccccc1)nccc2Cl,304.3,1.240329198,-0.1677,-7.7773,3.27982,402.4154443541177,0.059240563,-0.8735,-7.5284,205.01564,-1.016,-8.493,4.40535,319.06992899593246,1.0435841613,220,NaN,220,NaN,NaN
JFKQKRKXMFMPJS-UHFFFAOYSA-N,O=S(=O)(n1c(C#Cc2ccccc2)cc2c1nccc2c1ccccc1)c1ccccc1,O=S(=O)(n1c(C#Cc2ccccc2)cc2c1nccc2c1ccccc1)c1ccccc1,310.7,1.28428931,-0.1654,-7.7706,4.91050,398.5348711202303,0.076662633,-0.6463,-7.3013,152.95345,-0.891,-8.483,4.15233,325.24709603682965,1.0762729028,220,NaN,220,NaN,NaN
BQCADISMDOOEFD-UHFFFAOYSA-N,[Ag],[Ag],NaN,NaN,NaN,NaN,NaN,NaN,NaN,NaN,Nan,NaN,NaN,NaN,NaN,NaN,NaN,1800,NaN,1800,NaN,NaN
FODUBFGFNKKYPU-UHFFFAOYSA-N,CCOC(=O)Cc1cc2c([nH]1)cccc2,CCOC(=O)Cc1cc2c([nH]1)cccc2,261.7,0.111020921,1.6102,-7.707,3.51836,305.00417811932016,0.076360739,0.019,-7.6539,48.16420,-0.009,-8.496,3.07561,NaN,NaN,289,NaN,289,NaN,NaN
ZCJUYYQSXDBEPN-UHFFFAOYSA-N,C#CCOC(=O)Cc1cc2c([nH]1)cccc2,C#CCOC(=O)Cc1cc2c([nH]1)cccc2,260.8,0.11543416,1.5256,-7.7826,2.96378,309.2646505500216,0.16684264,-0.1417,-7.7548,73.53591,-0.102,-8.585,2.35774,NaN,NaN,289,NaN,289,NaN,NaN
NQORWSRJDILVBK-UHFFFAOYSA-N,O=C1OCCN1C(=O)Cc1cc2c([nH]1)cccc2,O=C1OCCN1C(=O)Cc1cc2c([nH]1)cccc2,262.3,0.148690744,1.0886,-7.78,3.56529,328.43496266358585,0.225665266,-0.6093,-7.7136,97.63307,-0.156,-8.552,3.38092,NaN,NaN,289,NaN,289,NaN,NaN
JIYYQHFJICFABN-UHFFFAOYSA-N,O=C1CCCN1C(=O)Cc1cc2c([nH]1)cccc2,O=C1CCCN1C(=O)Cc1cc2c([nH]1)cccc2,265.4,0.147970104,0.8693,-7.7012,4.39841,325.5032775151054,0.226123007,-0.4575,-7.634,58.63762,-0.048,-8.44,4.78534,NaN,NaN,289,NaN,289,NaN,NaN