inchikey,smi_pre,smi_post,lambda_sTDA (nm),f1_sTDA,lumo_dft,homo_dft,dmom_dft (D),lambda_z (nm),f1_z,lumo_z,homo_z,dmom_z (D),lumo_mopac,homo_mopac,dmom_mopac (D),lambda_tddft (nm),f1_tddft,lambda_exp_max (nm),epsilon_exp_max ,lambda_exp_min (nm),epsilon_exp_min ,solvent
LQRINDOKAIWAHP-UHFFFAOYSA-N,c1ccc(cc1)CN=Cc1ccc2c(c1)Cc1c2cccc1,c1ccc(cc1)CN=Cc1ccc2c(c1)Cc1c2cccc1,284.2,0.764053847,0.3412,-7.9998,0.78240,314.28187175032616,0.601259772,-0.364,-7.8895,13.04527,-0.616,-8.76,2.30215,NaN,NaN,307,NaN,307,NaN,NaN
OGJPXUAPXNRGGI-UHFFFAOYSA-N,CCn1cc(C(=O)O)c(=O)c2c1cc(N1CCNCC1)c(c2)F,CCn1cc(C(=O)O)c(=O)c2c1cc(N1CCNCC1)c(c2)F,291.2,0.108291643,-0.0511,-8.3459,10.00613,345.74511546431586,0.000230898,-1.293,-9.0539,190.97671,-1.085,-9.055,9.84647,NaN,NaN,273,NaN,273,NaN,NaN
YIDDKKGCFBUDSD-UHFFFAOYSA-N,FC1(F)C(F)(F)C(=C(C1(F)F)c1cc(sc1C#Cc1ccccc1)c1ccccc1)c1cc(sc1C#Cc1ccccc1)c1ccccc1,FC1(F)C(F)(F)C(=C(C1(F)F)c1cc(sc1C#Cc1ccccc1)c1ccccc1)c1cc(sc1C#Cc1ccccc1)c1ccccc1,335.9,0.675628706,-0.4734,-7.7369,4.15023,430.50068890799884,0.619424471,-1.0642,-7.3392,356.88563,-1.504,-8.735,4.52644,NaN,NaN,308,NaN,308,NaN,NaN
GUTVJXBEFBHZPW-UHFFFAOYSA-N,CCCCCCCCCCCCc1ccc(cc1)c1cc(c(s1)C#Cc1ccccc1)C1=C(c2cc(sc2C#Cc2ccccc2)c2ccc(cc2)CCCCCCCCCCCC)C(C(C1(F)F)(F)F)(F)F,Cc1ccc(cc1)c1cc(c(s1)C#Cc1ccccc1)C1=C(c2cc(sc2C#Cc2ccccc2)c2ccc(cc2)C)C(C(C1(F)F)(F)F)(F)F,339.7,0.729716037,-0.4191,-7.6292,4.58602,435.0322751070304,0.541783761,-1.0518,-7.2829,405.91853,-1.391,-8.71,4.72346,NaN,NaN,312,NaN,312,NaN,NaN
WPGYGDBCFVFQPF-UHFFFAOYSA-N,O=C(c1ccccc1)c1ccc(cc1)c1scc(c1)NC(=O)C(=C)C,O=C(c1ccccc1)c1ccc(cc1)c1scc(c1)NC(=O)C(=C)C,305.5,0.036550689,-0.1531,-8.0985,4.98127,361.68085882585666,0.00271145,-0.6193,-8.0084,123.64805,-0.889,-8.517,5.4395,NaN,NaN,251,NaN,251,NaN,chloroform
NBZRMUSAWRDQQO-UHFFFAOYSA-N,Clc1ccc(cc1)C(=O)c1ccc(cc1)c1scc(c1)NC(=O)C(=C)C,Clc1ccc(cc1)C(=O)c1ccc(cc1)c1scc(c1)NC(=O)C(=C)C,306.7,0.022977148,-0.283,-8.1734,5.68917,362.9514004844955,0.003151245,-0.8588,-8.1101,164.43820,-1.028,-8.581,6.18137,NaN,NaN,256,NaN,256,NaN,chloroform
WSPOMRSOLSGNFJ-UHFFFAOYSA-N,CN(CCC=C1c2ccccc2Sc2c1cc(Cl)cc2)C,CN(CCC=C1c2ccccc2Sc2c1cc(Cl)cc2)C,280.7,0.091084492,0.5893,-7.8732,1.90276,288.4695169974492,0.040295802,-0.1224,-8.1574,157.89324,-0.654,-8.312,2.34815,NaN,NaN,620.0,NaN,520.0,NaN,NaN
BVKZGUZCCUSVTD-UHFFFAOYSA-L,[O-]C(=O)[O-],[O-]C(=O)[O-],NaN,NaN,NaN,NaN,NaN,NaN,NaN,NaN,Nan,NaN,NaN,NaN,NaN,NaN,NaN,100,NaN,100,NaN,NaN
XYRLDXBADGCQFI-UHFFFAOYSA-N,CN(c1ccc(cc1)C=Cc1ccc(c(c1)O)[N+](=O)[O-])C,CN(c1ccc(cc1)C=Cc1ccc(c(c1)O)[N+](=O)[O-])C,347.1,1.576737623,-0.7675,-7.3225,8.71891,425.76991210681206,0.249180465,-2.5408,-7.9651,304.20162,-1.38,-8.359,8.32148,382.7617714535671,1.3021935687,462.0,NaN,442.0,NaN,Cyclohexane
PJANXHGTPQOBST-UHFFFAOYSA-N,c1ccc(cc1)C=Cc1ccccc1,c1ccc(cc1)C=Cc1ccccc1,274.3,0.371644558,0.6277,-8.1539,0.18839,291.31625565202927,0.284595821,0.2085,-7.9018,3.66752,-0.464,-8.964,0.0347,NaN,NaN,412.0,NaN,392.0,NaN,THF
DBMJMQXJHONAFJ-UHFFFAOYSA-M,CCCCCCCCCCCCOS(=O)(=O)[O-].[Na+],CCCCCCCCCCCCOS(=O)(=O)[O-].[Na+],NaN,NaN,NaN,NaN,NaN,NaN,NaN,NaN,Nan,NaN,NaN,NaN,NaN,NaN,NaN,406,NaN,406,NaN,NaN
JYCQQPHGFMYQCF-UHFFFAOYSA-N,OCCOc1ccc(cc1)C(CC(C)(C)C)(C)C,OCCOc1ccc(cc1)C(CC(C)(C)C)(C)C,249.2,0.047699045,1.6518,-8.2117,1.59731,288.53664976845164,0.036880385,0.6144,-8.2248,174.17087,0.212,-8.756,2.05351,NaN,NaN,405,NaN,405,NaN,NaN
LZZYPRNAOMGNLH-UHFFFAOYSA-M,CCCCCCCCCCCCCCCC[N+](C)(C)C.[Br-],CCCCCCCCCCCCCCCC[N+](C)(C)C.[Br-],NaN,NaN,NaN,NaN,NaN,NaN,NaN,NaN,Nan,NaN,NaN,NaN,NaN,NaN,NaN,401,NaN,401,NaN,NaN
SCECLDDXBDUKMQ-UHFFFAOYSA-N,CCN1c2cc(sc2C(C21C=Cc1c(O2)ccc(c1)[N+](=O)[O-])(C)C)C,CCN1c2cc(sc2C(C21C=Cc1c(O2)ccc(c1)[N+](=O)[O-])(C)C)C,312.5,6.8985e-05,-0.2062,-7.5327,5.89826,422.86561529844363,0.000195805,-2.3802,-7.5427,141.57189,-1.022,-8.189,6.54553,NaN,NaN,613,NaN,613,NaN,Toluene
ZVCONWFBVCGSER-UHFFFAOYSA-N,COC(=O)c1c(C)sc2c1N(C)C1(C2(C)C)C=Cc2c(O1)ccc1c2cccc1,COC(=O)c1c(C)sc2c1N(C)C1(C2(C)C)C=Cc2c(O1)ccc1c2cccc1,325.4,0.227741493,0.3484,-7.4428,2.36514,371.09906736157933,0.116173793,-0.4038,-7.4548,194.78763,-0.744,-7.999,1.21964,NaN,NaN,564,NaN,564,NaN,Toluene
BOSMZFBHAYFUBJ-UHFFFAOYSA-N,Cc1ccc(cc1)OP(=O)(Oc1ccc(cc1)C)Oc1ccc(cc1)C,Cc1ccc(cc1)OP(=O)(Oc1ccc(cc1)C)Oc1ccc(cc1)C,233.3,0.016577207,1.5931,-8.7642,0.59426,278.1161920267018,0.020961472,0.7247,-8.4222,13.24126,-0.91,-8.713,0.39381,NaN,NaN,414,NaN,414,NaN,NaN
ODHXBMXNKOYIBV-UHFFFAOYSA-N,c1ccc(cc1)N(c1ccccc1)c1ccccc1,c1ccc(cc1)N(c1ccccc1)c1ccccc1,286.4,0.032953352,1.2349,-7.2654,0.02576,308.035275541624,0.198081976,0.4752,-7.3331,0.07196,-0.047,-7.967,0.00954,NaN,NaN,300,NaN,300,NaN,NaN
ZJTJUVIJVLLGSP-UHFFFAOYSA-N,Cc1cc2nc3c(nc2cc1C)[nH]c(=O)[nH]c3=O,Cc1cc2nc3c(nc2cc1C)[nH]c(=O)[nH]c3=O,326.5,0.00759852,-0.8942,-8.8473,5.49445,381.959945796376,0.391068481,-1.8398,-8.7174,191.71052,-1.75,-9.47,5.83569,NaN,NaN,348.0,NaN,290.0,NaN,NaN
XDIYYRQKNZGFIG-UHFFFAOYSA-N,Cc1nc2csc(c2nc1C)[Si](C)(C)C,Cc1nc2csc(c2nc1C)[Si](C)(C)C,337.0,0.005644711,-0.1914,-8.2276,1.41401,443.7516048872715,0.106113664,-1.0222,-7.423,98.23118,-1.132,-8.825,1.40524,NaN,NaN,350.0,19700,236.0,10700,NaN
FXDUPZJLRQQMDO-UHFFFAOYSA-N,CCCCCCc1nc2c(sc(c2nc1CCCCCC)c1cccs1)c1cccs1,Cc1nc2c(sc(c2nc1C)c1cccs1)c1cccs1,455.9,0.522107559,-0.825,-6.9901,1.34365,591.2455813328739,0.456388189,-1.5219,-6.6344,61.99076,-1.746,-8.146,1.52093,NaN,NaN,505.0,9400,307.0,11200,NaN
YUKWPPPFPCMLLW-UHFFFAOYSA-N,Cc1nc2c(nc1C)c(sc2[Si](C)(C)C)c1ccc(s1)c1sc(c2c1nc(C)c(n2)C)[Si](C)(C)C,Cc1nc2c(nc1C)c(sc2[Si](C)(C)C)c1ccc(s1)c1sc(c2c1nc(C)c(n2)C)[Si](C)(C)C,460.7,1.053628662,-0.8098,-6.8286,3.07103,651.519697348942,0.73668276,-1.4068,-6.2393,136.16540,-1.512,-7.926,1.41136,NaN,NaN,527,NaN,527,NaN,NaN
GMBDQZHVMSSXIW-UHFFFAOYSA-N,CCCCCCc1nc2c(nc1CCCCCC)c(sc2c1scc2c1OCCO2)c1scc2c1OCCO2,Cc1nc2c(nc1C)c(sc2c1scc2c1OCCO2)c1scc2c1OCCO2,437.6,0.479708001,-0.386,-6.7747,1.83668,585.3833730193752,0.377914341,-1.363,-6.578,131.16911,-1.537,-7.717,3.10168,NaN,NaN,537.0,7800,250.0,13100,NaN
ZIPXJHQGSXXQGQ-UHFFFAOYSA-N,Cc1nc2c(nc1C)c(sc2[Si](C)(C)C)c1sc(c2c1OCCO2)c1sc(c2c1nc(C)c(n2)C)[Si](C)(C)C,Cc1nc2c(nc1C)c(sc2[Si](C)(C)C)c1sc(c2c1OCCO2)c1sc(c2c1nc(C)c(n2)C)[Si](C)(C)C,431.9,0.877525427,-0.5079,-6.771,2.27428,540.7073633035484,0.467073089,-1.067,-6.5882,38.26430,-1.157,-7.959,1.01739,470.1000720756785,0.7340454228,548,NaN,548,NaN,NaN
BJRNKVDFDLYUGJ-RMPHRYRLSA-N,OC[C@H]1O[C@@H](Oc2ccc(cc2)O)[C@@H]([C@H]([C@@H]1O)O)O,OC[C@H]1O[C@@H](Oc2ccc(cc2)O)[C@@H]([C@H]([C@@H]1O)O)O,259.4,0.082231451,1.4395,-8.1489,4.00275,284.1718964141729,0.03771037,0.4566,-8.4957,44.69886,-0.26,-8.93,1.85401,NaN,NaN,930,NaN,930,NaN,NaN
MRYUEHRAIMRPNB-UHFFFAOYSA-O,Nc1ccc2c(c1)c(c1ccccc1)[n+](c1c2ccc(c1)N)C,Nc1ccc2c(c1)c(c1ccccc1)[n+](c1c2ccc(c1)N)C,NaN,NaN,NaN,NaN,NaN,NaN,NaN,NaN,Nan,NaN,NaN,NaN,NaN,NaN,NaN,478,NaN,478,NaN,Water
LBLQPCAYBXWESC-UHFFFAOYSA-N,[n-]1cccn1,[n-]1cccn1,NaN,NaN,NaN,NaN,NaN,NaN,NaN,NaN,Nan,NaN,NaN,NaN,NaN,NaN,NaN,700.0,NaN,687.0,NaN,Water
PVSYURRJDSKKOK-UHFFFAOYSA-N,N#CC(=Cc1ccc(cc1)C#Cc1ccc2c(c1)C(CC)(CC)c1c2ccc(c1)N(c1ccccc1)c1ccccc1)C(=O)O,N#CC(=Cc1ccc(cc1)C#Cc1ccc2c(c1)C(CC)(CC)c1c2ccc(c1)N(c1ccccc1)c1ccccc1)C(=O)O,362.9,2.526144923,-1.1431,-7.1596,4.73323,367.0343351258249,1.18608237,-1.3625,-7.1654,508.64154,-1.597,-7.962,3.86875,384.93648672495095,2.2911182471,583.0,NaN,377.6,NaN,THF
VRNJTHYBNURARL-UHFFFAOYSA-N,N#CC(=Cc1cccc(c1)C#Cc1ccc2c(c1)C(CC)(CC)c1c2ccc(c1)N(c1ccccc1)c1ccccc1)C(=O)O,N#CC(=Cc1cccc(c1)C#Cc1ccc2c(c1)C(CC)(CC)c1c2ccc(c1)N(c1ccccc1)c1ccccc1)C(=O)O,336.7,1.774266589,-0.9035,-7.0749,2.01543,369.66069888343367,0.927398921,-1.35,-7.1067,399.70233,-1.512,-7.921,2.33875,346.11186703489324,1.5761189716,418.1,NaN,325.0,NaN,THF
VQKINESLXLSTJX-UHFFFAOYSA-N,N#CC(=Cc1ccc(cc1)C#Cc1ccc2c(c1)C(CC)(CC)c1c2ccc(c1)N(c1ccccc1)c1ccccc1)C#N,N#CC(=Cc1ccc(cc1)C#Cc1ccc2c(c1)C(CC)(CC)c1c2ccc(c1)N(c1ccccc1)c1ccccc1)C#N,354.7,2.552449091,-1.4117,-7.2555,9.12488,361.25931936335564,1.105485833,-1.2361,-7.1709,315.58969,-1.717,-7.99,7.22337,NaN,NaN,626.4,NaN,389.3,NaN,THF
QQKDBWJIVFIJOB-UHFFFAOYSA-N,N#CC(=Cc1ccc(s1)C#Cc1ccc2c(c1)C(CC)(CC)c1c2ccc(c1)N(c1ccccc1)c1ccccc1)C#N,N#CC(=Cc1ccc(s1)C#Cc1ccc2c(c1)C(CC)(CC)c1c2ccc(c1)N(c1ccccc1)c1ccccc1)C#N,389.1,2.663050749,-1.515,-7.2541,10.53109,451.01563625137743,1.140474881,-1.6702,-7.2197,540.89873,-2.033,-8.035,8.04082,NaN,NaN,632.3,NaN,401.6,NaN,THF
NTZOOVUEDABBOI-UHFFFAOYSA-N,O=C1NC(Nc2c1cccc2)c1ccccn1,O=C1NC(Nc2c1cccc2)c1ccccn1,282.7,0.063491032,0.6123,-8.0871,4.57835,312.30276676449284,0.07739069,-0.4158,-8.4823,51.63605,-0.657,-8.82,4.88075,NaN,NaN,340,NaN,340,NaN,chloroform
ZQROQEKRGLIYPL-UHFFFAOYSA-N,O=C1NC(Nc2c1cccc2)c1cccnc1,O=C1NC(Nc2c1cccc2)c1cccnc1,284.3,0.06705359,0.5799,-8.2255,3.12097,313.80460239307433,0.080949967,-0.4849,-8.4943,44.16802,-0.77,-8.88,3.23531,NaN,NaN,332.2,NaN,332.2,NaN,chloroform
WHSLICPSSNGCOM-UHFFFAOYSA-N,O=C1NC(Nc2c1cccc2)c1ccncc1,O=C1NC(Nc2c1cccc2)c1ccncc1,282.5,0.061306092,0.5412,-8.2818,4.09426,312.30276676449284,0.078832195,-0.5073,-8.5601,43.27224,-0.706,-8.922,4.01015,NaN,NaN,340,NaN,340,NaN,chloroform
HTIWQIPVCIRJKO-UHFFFAOYSA-N,Cc1ccc(o1)C1NC(=O)c2c(N1)cccc2,Cc1ccc(o1)C1NC(=O)c2c(N1)cccc2,279.9,0.076791027,0.8734,-8.138,5.14650,311.7530762019202,0.092741863,-0.3872,-8.0983,57.09903,-0.375,-8.788,5.95289,NaN,NaN,329.8,NaN,329.8,NaN,chloroform
LBQIJVLKGVZRIW-ZDUSSCGKSA-N,Oc1ccc(c(c1)O)[C@@H]1COc2c(C1)ccc1c2C=CC(O1)(C)C,Oc1ccc(c(c1)O)[C@@H]1COc2c(C1)ccc1c2C=CC(O1)(C)C,286.8,0.11056512,1.1465,-7.7159,1.21003,318.3162988588027,0.070027964,0.1803,-7.7144,110.96529,-0.154,-8.32,2.63123,NaN,NaN,0,NaN,0,NaN,NaN
RYGMFSIKBFXOCR-UHFFFAOYSA-N,[Cu],[Cu],NaN,NaN,NaN,NaN,NaN,NaN,NaN,NaN,Nan,NaN,NaN,NaN,NaN,NaN,NaN,485.0,NaN,380.0,NaN,chloroform
LIEWJHCSRALISJ-UHFFFAOYSA-N,C1CCN(C1)c1ccc(cc1)C=Cc1ccc(cc1)n1c2ccccc2c2c1cccc2,C1CCN(C1)c1ccc(cc1)C=Cc1ccc(cc1)n1c2ccccc2c2c1cccc2,319.8,1.599259931,0.4526,-6.9846,6.13202,332.57563949974156,0.967970067,-0.0533,-7.283,89.11985,-0.498,-7.883,5.25669,339.2737330594337,1.6407247205,NaN,NaN,NaN,NaN,DMF
PFHJLTOLXWXCJH-UHFFFAOYSA-N,CCCS(=O)(=O)Nc1ccc(c(c1F)C(=O)Nc1cnc2c(c1)c(OC)n[nH]2)F,CCCS(=O)(=O)Nc1ccc(c(c1F)C(=O)Nc1cnc2c(c1)c(OC)n[nH]2)F,289.4,0.113663771,0.5378,-8.1348,5.78976,331.3313693359264,0.219944167,-0.7869,-7.897,102.56360,-1.046,-8.481,6.64662,NaN,NaN,254,NaN,254,NaN,NaN
NRNCYVBFPDDJNE-UHFFFAOYSA-N,O=C1N=C(OC1c1ccccc1)N,O=C1N=C(OC1c1ccccc1)N,243.2,0.012632717,1.3584,-8.9608,5.59394,324.9913457549244,0.003839329,-0.4955,-8.8404,78.48950,-0.187,-9.676,5.52129,NaN,NaN,351,NaN,351,NaN,NaN
WBPLMFVTQMIPLW-MFYTUXHUSA-N,CSC[C@H]1O[C@H]([C@@H]([C@@H]1O)O)n1ccc2c1ncnc2N,CSC[C@H]1O[C@H]([C@@H]([C@@H]1O)O)n1ccc2c1ncnc2N,254.0,0.239117482,1.167,-8.2054,4.91944,309.96049601375915,0.081013514,-0.0306,-7.9117,73.40294,-0.424,-8.597,4.69836,NaN,NaN,450,NaN,450,NaN,acetone
KYHQZNGJUGFTGR-UHFFFAOYSA-N,CC(Cn1cnc2c1c(=O)n(C)c(=O)n2C)O,CC(Cn1cnc2c1c(=O)n(C)c(=O)n2C)O,251.4,0.223907422,0.6972,-8.6351,3.50189,327.1350881411706,0.251632679,-1.0497,-8.8327,39.44667,-0.569,-9.051,1.86817,NaN,NaN,419,NaN,419,NaN,NaN
REHMQSAMQCFKDZ-UHFFFAOYSA-N,[SiH2]=[Mo]=[SiH2],[SiH2]=[Mo]=[SiH2],NaN,NaN,NaN,NaN,NaN,NaN,NaN,NaN,Nan,NaN,NaN,NaN,NaN,NaN,NaN,448.0,NaN,447.0,NaN,acetone
VGMJEVNHGWCECD-XSWNFMMWSA-N,CN1C[C@@H]2C[C@H](C1)[C@@]13N(C2)C(=O)[C@@H](C=C1)[C@@H]1[C@H]3C(=O)N(C1=O)c1ccccc1,CN1C[C@@H]2C[C@H](C1)[C@@]13N(C2)C(=O)[C@@H](C=C1)[C@@H]1[C@H]3C(=O)N(C1=O)c1ccccc1,232.6,0.015180616,1.2014,-8.4848,4.16093,309.5735291023812,0.002496968,-0.6539,-8.8473,101.13249,-0.045,-9.101,5.18508,NaN,NaN,254,NaN,254,NaN,NaN
MUBZPKHOEPUJKR-UHFFFAOYSA-N,OC(=O)C(=O)O,OC(=O)C(=O)O,NaN,NaN,NaN,NaN,NaN,NaN,NaN,NaN,Nan,NaN,NaN,NaN,NaN,NaN,NaN,605,NaN,605,NaN,NaN
XPCTZQVDEJYUGT-UHFFFAOYSA-N,O=c1ccoc(c1O)C,O=c1ccoc(c1O)C,256.5,4.0514e-05,0.7364,-8.693,3.53105,355.76527519513246,2.32e-07,-0.9616,-9.316,32.58592,-0.54,-9.253,3.61625,NaN,NaN,445,NaN,445,NaN,NaN
BEJNERDRQOWKJM-UHFFFAOYSA-N,OCc1occ(c(=O)c1)O,OCc1occ(c(=O)c1)O,260.6,3.456e-06,0.5202,-8.9774,3.48373,357.61234036776364,1.6231e-05,-1.0731,-9.6673,25.33729,-0.724,-9.548,3.42332,NaN,NaN,425,NaN,425,NaN,NaN
DKESASVLMZGECV-UHFFFAOYSA-N,CC(=O)CC(c1ccc(cc1)[N+](=O)[O-])O,CC(=O)CC(c1ccc(cc1)[N+](=O)[O-])O,315.5,8.138e-06,-0.4038,-9.6997,5.57590,421.28507783045757,0.00012633,-2.4367,-9.7299,96.82750,-1.314,-10.457,6.39713,NaN,NaN,254,NaN,254,NaN,NaN
NQUKOZRRHCRMIE-UHFFFAOYSA-N,OC(c1ccc(cc1)C#N)CC(=O)C,OC(c1ccc(cc1)C#N)CC(=O)C,257.1,3.2218e-05,0.3169,-9.5031,5.11864,332.39731476006347,1.0365e-05,-0.3052,-9.0577,31.25618,-0.885,-10.151,4.51973,NaN,NaN,254,NaN,254,NaN,NaN
XMBLYMGMZVSQKM-UHFFFAOYSA-N,OC(c1ccc(cc1)Br)CC(=O)C,OC(c1ccc(cc1)Br)CC(=O)C,257.5,1.1335e-05,1.2394,-8.8957,2.21846,329.56990538411395,7.592e-06,-0.0338,-9.1264,231.98987,-0.385,-9.564,2.11819,NaN,NaN,262,NaN,262,NaN,NaN
LTUVBWVFYPDTAI-UHFFFAOYSA-N,OC(c1ccc(cc1)Cl)CC(=O)C,OC(c1ccc(cc1)Cl)CC(=O)C,257.3,1.3025e-05,1.306,-8.9404,2.21619,332.39731476006347,9.846e-06,0.012,-9.1135,115.83427,-0.339,-9.708,2.55266,NaN,NaN,254,NaN,254,NaN,NaN
MUVVFSVVVHYLMQ-UHFFFAOYSA-N,OC(c1ccccc1)CC(=O)C,OC(c1ccccc1)CC(=O)C,257.7,7.267e-06,1.6002,-9.077,1.62693,331.86348609610184,1.604e-05,0.2116,-8.7956,39.43534,0.073,-9.723,2.02638,NaN,NaN,257,NaN,257,NaN,NaN
ZRQWPFKGJLGSPI-UHFFFAOYSA-N,CC(=O)CC(c1cccc2c1cccc2)O,CC(=O)CC(c1cccc2c1cccc2)O,291.4,0.0797997,0.4664,-8.2366,2.68667,315.08055503304615,0.004751991,-0.2004,-7.9604,54.51179,-0.754,-9.059,2.83864,NaN,NaN,243,NaN,243,NaN,NaN
MXVTULUUAPPLRM-UHFFFAOYSA-N,CC(=O)CC(c1ccc2c(c1)cccc2)O,CC(=O)CC(c1ccc2c(c1)cccc2)O,283.6,0.060710951,0.7245,-8.1029,3.34296,334.18921403100717,1.3793e-05,-0.1142,-7.9271,74.30832,-0.774,-9.135,3.44474,NaN,NaN,254,NaN,254,NaN,NaN
BLRPTPMANUNPDV-UHFFFAOYSA-N,[SiH4],[SiH4],NaN,NaN,NaN,NaN,NaN,NaN,NaN,NaN,Nan,NaN,NaN,NaN,NaN,NaN,NaN,334.0,NaN,310.0,NaN,NaN
PSBDWGZCVUAZQS-UHFFFAOYSA-N,[O-]C(=O)C[S+](C)C,[O-]C(=O)C[S+](C)C,NaN,NaN,NaN,NaN,NaN,NaN,NaN,NaN,Nan,NaN,NaN,NaN,NaN,NaN,NaN,432,NaN,432,NaN,water
ZOKXTWBITQBERF-UHFFFAOYSA-N,[Mo],[Mo],NaN,NaN,NaN,NaN,NaN,NaN,NaN,NaN,Nan,NaN,NaN,NaN,NaN,NaN,NaN,NaN,NaN,NaN,NaN,Ethanol
GTIBIXIJABCLPL-UHFFFAOYSA-N,[N-]=[N+]=CC(=O)OCc1cccc(c1)SSc1ccccn1,[N-]=[N+]=CC(=O)OCc1cccc(c1)SSc1ccccn1,350.3,8.0516e-05,0.3076,-8.4462,4.16667,673.0955396607147,7.712e-06,-1.4029,-8.6296,86.25568,-0.94,-8.525,3.90458,NaN,NaN,295.0,NaN,215.0,NaN,NaN
QPCKXATVJWUMEG-UHFFFAOYSA-N,[N-]=[N+]=CC(=O)OCc1ccc(cc1)SSc1ccccn1,[N-]=[N+]=CC(=O)OCc1ccc(cc1)SSc1ccccn1,347.7,5.2196e-05,0.4747,-8.4615,4.83562,677.5092809043915,1.839e-06,-1.4129,-8.5873,96.84866,-1.032,-8.527,3.13793,NaN,NaN,295.0,NaN,215.0,NaN,NaN
PVHNUNINOGIQRR-UHFFFAOYSA-N,COC(=O)C1=C(SC(=C(c2ccccn2)c2ccccn2)S1)C(=O)OC,COC(=O)C1=C(SC(=C(c2ccccn2)c2ccccn2)S1)C(=O)OC,348.2,0.09522174,0.0697,-7.2802,1.72698,301.8115832655883,0.066402792,-0.9289,-8.6318,167.77681,-1.106,-8.311,3.92616,NaN,NaN,306,15082,306,15082,NaN
KJDSORYAHBAGPP-UHFFFAOYSA-N,Nc1ccc(cc1N)c1ccc(c(c1)N)N.[Cl-].[Cl-].[Cl-].[Cl-].[H+].[H+].[H+].[H+],Nc1ccc(cc1N)c1ccc(c(c1)N)N.[Cl-].[Cl-].[Cl-].[Cl-].[H+].[H+].[H+].[H+],NaN,NaN,NaN,NaN,NaN,NaN,NaN,NaN,Nan,NaN,NaN,NaN,NaN,NaN,NaN,475,NaN,475,NaN,NaN
YGXAFONXVIPAQC-VIFPVBQESA-N,NC(=O)[C@H](Cc1cc(NNc2ccccn2)c(cc1O)O)N,NC(=O)[C@H](Cc1cc(NNc2ccccn2)c(cc1O)O)N,262.4,0.143871645,1.1436,-7.5641,1.59980,302.0321520231514,0.058476173,0.2042,-7.9657,41.45936,-0.371,-8.708,1.99012,NaN,NaN,435,NaN,435,NaN,NaN
PAAFBSNTXWFLQJ-UHFFFAOYSA-N,COc1cc(ccc1OC)C(=C(Br)Br)c1ccc(c(c1)OC)OC,COc1cc(ccc1OC)C(=C(Br)Br)c1ccc(c(c1)OC)OC,265.6,0.266906206,0.9659,-7.63,2.61798,440.5977199911288,0.005843324,-1.2459,-8.1969,419.91334,-0.268,-8.401,1.92769,NaN,NaN,500,NaN,500,NaN,NaN
GDRHENSQXHYPQP-UHFFFAOYSA-N,C1CCC(CC1)n1nnc(c1)c1ccccn1,C1CCC(CC1)n1nnc(c1)c1ccccn1,246.5,0.294316335,0.9279,-8.5154,3.12081,302.17937705460315,0.366635224,-0.1268,-8.1534,79.48685,-0.502,-9.211,3.65743,NaN,NaN,282,8760.0,282,8760.0,NaN
ATKPJGGRHLHBLV-UHFFFAOYSA-N,FC(c1ccccc1n1nnc(c1)c1ccccn1)(F)F,FC(c1ccccc1n1nnc(c1)c1ccccn1)(F)F,247.2,0.010996436,0.4196,-8.688,3.15890,303.2139848508282,0.1769904,-0.533,-8.2052,128.59886,-1.351,-9.4,3.65043,NaN,NaN,281,13000.0,281,13000.0,NaN
ZLYWUKKYAREIQZ-UHFFFAOYSA-N,CCCCCCc1ccc(cc1)n1nnc(c1)c1ccccn1,Cc1ccc(cc1)n1nnc(c1)c1ccccn1,253.7,0.680605556,0.6127,-8.474,2.70843,314.7605950888643,0.347009708,-0.4425,-8.0805,65.94613,-0.892,-9.104,3.3452,NaN,NaN,287,16200.0,287,16200.0,NaN
CAARKDGULKHMIE-UHFFFAOYSA-N,SCc1ccccc1n1nnc(c1)c1ccccn1,SCc1ccccc1n1nnc(c1)c1ccccn1,248.0,0.440879325,0.6114,-8.6786,2.10132,307.11963934977376,0.21592304,-0.4156,-8.1981,81.76783,-0.905,-8.745,3.87775,NaN,NaN,282,10700.0,282,10700.0,NaN
GVHVKUPNZUCMQB-UHFFFAOYSA-N,OCC(=O)CCc1ccc(cc1)[N+](=O)[O-],OCC(=O)CCc1ccc(cc1)[N+](=O)[O-],315.4,2.071e-06,-0.4698,-9.9173,5.70605,421.7149605629376,0.000221857,-2.5088,-9.8628,95.29779,-1.408,-10.574,2.80397,NaN,NaN,262,NaN,262,NaN,NaN
MUHIXUFBEZFQQI-UHFFFAOYSA-N,OCC(=O)CCc1ccccc1[N+](=O)[O-],OCC(=O)CCc1ccccc1[N+](=O)[O-],320.0,0.015731215,-0.4273,-9.8316,2.03036,437.9519548057353,0.018546896,-2.5464,-9.6174,46.34087,-1.275,-10.394,2.14352,NaN,NaN,262,NaN,262,NaN,NaN
PVGWLVNASYEDCK-UHFFFAOYSA-N,OCC(=O)CCc1cccc(c1)[N+](=O)[O-],OCC(=O)CCc1cccc(c1)[N+](=O)[O-],317.0,0.000122971,-0.4383,-9.7896,6.86899,425.04010423552853,0.00021501,-2.3975,-9.6074,112.09841,-1.324,-10.473,3.49235,NaN,NaN,262,NaN,262,NaN,NaN
FRCRXHUYQHEUMJ-UHFFFAOYSA-N,[O-][N+](=O)c1cc(CCC(=O)CO)c(cc1)Cl,[O-][N+](=O)c1cc(CCC(=O)CO)c(cc1)Cl,NaN,NaN,NaN,NaN,NaN,NaN,NaN,NaN,Nan,NaN,NaN,NaN,NaN,NaN,NaN,262,NaN,262,NaN,NaN
CTMLKIKAUFEMLE-FMOSSLLZSA-N,OC[C@H]1O[C@@H](Oc2cc3C[C@H](N(c3cc2O)C=CC2=CC(=[NH+][C@@H](C2)C(=O)O)C(=O)O)C(=O)[O-])[C@@H]([C@H]([C@@H]1O)O)O,OC[C@H]1O[C@@H](Oc2cc3C[C@H](N(c3cc2O)C=CC2=CC(=[NH+][C@@H](C2)C(=O)O)C(=O)O)C(=O)[O-])[C@@H]([C@H]([C@@H]1O)O)O,415.8,0.770994909,-1.6024,-8.0869,11.03151,494.9468998223699,0.340912624,-2.162,-8.0881,98.30857,-1.437,-8.701,11.60387,NaN,NaN,538,NaN,538,NaN,NaN
YQDKULBMDMPFLH-ZETCQYMHSA-N,O=CC=C1C[C@H](NC(=C1)C(=O)O)C(=O)O,O=CC=C1C[C@H](NC(=C1)C(=O)O)C(=O)O,NaN,NaN,NaN,NaN,NaN,NaN,NaN,NaN,Nan,NaN,NaN,NaN,NaN,NaN,NaN,410,NaN,410,NaN,NaN
CTMLKIKAUFEMLE-RYGANQNKSA-N,OC[C@H]1O[C@@H](Oc2cc3C[C@H](N(c3cc2O)C=CC2=CC(=[NH+][C@H](C2)C(=O)O)C(=O)O)C(=O)[O-])[C@@H]([C@H]([C@@H]1O)O)O,OC[C@H]1O[C@@H](Oc2cc3C[C@H](N(c3cc2O)C=CC2=CC(=[NH+][C@H](C2)C(=O)O)C(=O)O)C(=O)[O-])[C@@H]([C@H]([C@@H]1O)O)O,351.8,0.05773012,-1.38,-8.1112,9.02772,373.4463807394689,0.033484673,-1.9807,-8.2779,84.97637,-1.556,-8.676,12.73266,NaN,NaN,538,NaN,538,NaN,NaN
GVDCHDBOXJUSDZ-UHFFFAOYSA-M,Cc1ccc(cc1)Nc1ccc2c(c1)ccc(c2)S(=O)(=O)[O-].[K+],Cc1ccc(cc1)Nc1ccc2c(c1)ccc(c2)S(=O)(=O)[O-].[K+],NaN,NaN,NaN,NaN,NaN,NaN,NaN,NaN,Nan,NaN,NaN,NaN,NaN,NaN,NaN,381,NaN,381,NaN,NaN
QQINRWTZWGJFDB-UHFFFAOYSA-N,[Ac],[Ac],NaN,NaN,NaN,NaN,NaN,NaN,NaN,NaN,Nan,NaN,NaN,NaN,NaN,NaN,NaN,362,NaN,362,NaN,NaN
FZERHIULMFGESH-UHFFFAOYSA-N,CC(=O)Nc1ccccc1,CC(=O)Nc1ccccc1,242.6,0.043180318,1.5078,-8.4248,3.51465,302.17937705460315,0.000450928,0.2582,-8.4871,29.73854,0.086,-8.852,3.66333,NaN,NaN,381,NaN,381,NaN,NaN
HOGVTUZUJGHKPL-HTVVRFAVSA-N,OC[C@H]1O[C@H]([C@@H]([C@@H]1O)O)n1cc2c3c1ncnc3n(nc2N)C,OC[C@H]1O[C@H]([C@@H]([C@@H]1O)O)n1cc2c3c1ncnc3n(nc2N)C,304.9,0.025957808,1.1551,-7.4282,3.95080,356.6864165866043,0.051844233,-0.344,-7.543,60.64079,-0.469,-8.056,4.4147,NaN,NaN,378.0,NaN,376.0,NaN,NaN
PVBJGBOZUJFAOV-UHFFFAOYSA-N,CCCCCCCCCCCCc1ccc(s1)c1ccc(s1)Br,Cc1ccc(s1)c1ccc(s1)Br,301.9,0.651355968,0.3277,-7.679,2.59946,398.4068072156287,3.6084e-05,-0.7927,-7.4857,292.50158,-1.167,-8.729,2.67303,NaN,NaN,942,NaN,942,NaN,chloroform
JTWYTTXTJFDYAG-UHFFFAOYSA-N,O=Cc1ccc2c(c1)[nH]nc2,O=Cc1ccc2c(c1)[nH]nc2,309.1,1.4874e-05,-0.2234,-8.8016,1.80758,326.0168246266202,0.093725383,-1.1708,-8.8097,31.47739,-1.062,-9.309,1.6128,NaN,NaN,282,NaN,282,NaN,NaN
KMWCSNCNHSEXIF-UHFFFAOYSA-N,Cc1nc[nH]c1C=O,Cc1nc[nH]c1C=O,289.0,0.000202744,0.4204,-9.0898,0.92811,355.1538195517149,8.79e-07,-0.8197,-8.7622,34.65364,-0.593,-9.737,0.08823,NaN,NaN,270,NaN,270,NaN,NaN