inchikey,smi_pre,smi_post,lambda_sTDA (nm),f1_sTDA,lumo_dft,homo_dft,dmom_dft (D),lambda_z (nm),f1_z,lumo_z,homo_z,dmom_z (D),lumo_mopac,homo_mopac,dmom_mopac (D),lambda_tddft (nm),f1_tddft,lambda_exp_max (nm),epsilon_exp_max ,lambda_exp_min (nm),epsilon_exp_min ,solvent
GMZCERZZUVPDQT-UHFFFAOYSA-N,O=C(c1[n+]([O-])c2ccccc2[n+](c1c1ccccc1)[O-])c1ccccc1,O=C(c1[n+]([O-])c2ccccc2[n+](c1c1ccccc1)[O-])c1ccccc1,354.5,0.218940179,-0.8009,-7.813,3.08530,421.28507783045757,0.088701742,-2.3393,-8.612,80.10853,-1.592,-8.491,3.60734,NaN,NaN,280,NaN,280,NaN,NaN
RRVIAQKBTUQODI-UHFFFAOYSA-N,CNC(=O)N(c1nc2c(s1)cccc2)C,CNC(=O)N(c1nc2c(s1)cccc2)C,254.5,0.174842482,0.9844,-8.364,2.78973,312.0669479121663,0.314377002,-0.4324,-8.2896,66.88884,-0.955,-8.817,2.16747,NaN,NaN,295.0,NaN,228.0,NaN,NaN
DVHJLZZNFUPCMK-UHFFFAOYSA-N,OCc1ccc(cc1)N(c1ccccc1)c1ccc(cc1)C=CC1=CC(=C(C#N)C#N)CC(C1)(C)C,OCc1ccc(cc1)N(c1ccccc1)c1ccc(cc1)C=CC1=CC(=C(C#N)C#N)CC(C1)(C)C,383.5,2.084365652,-1.2452,-7.3811,10.75448,400.8541817184082,1.227671256,-1.4498,-7.3976,143.89755,-1.597,-8.223,10.08965,417.3427797537345,1.7400241091,494.0,NaN,486.0,NaN,NaN
WUUOFSSHBAPJPF-UHFFFAOYSA-N,FC(c1cccc(c1)c1ccc(s1)c1ccc(s1)c1cccc(c1)C(F)(F)F)(F)F,FC(c1cccc(c1)c1ccc(s1)c1ccc(s1)c1cccc(c1)C(F)(F)F)(F)F,330.2,1.472697472,-0.3332,-7.8007,0.93809,424.8944427878809,0.825074081,-1.0909,-7.3929,144.42836,-1.524,-9.025,0.00587,355.85715969472585,1.2153927969,374,37153.52290971728,374,37153.52290971728,NaN
XSBTVPKGMYFBSV-UHFFFAOYSA-N,CCCCCc1ccc(cc1)C#Cc1c(C#Cc2ccc(cc2)CCCCC)c(F)c(c(c1F)C#Cc1ccc(cc1)CCCCC)C#Cc1ccc(cc1)CCCCC,Cc1ccc(cc1)C#Cc1c(C#Cc2ccc(cc2)C)c(F)c(c(c1F)C#Cc1ccc(cc1)C)C#Cc1ccc(cc1)C,347.1,0.855721081,-0.676,-7.5488,0.21264,413.2806613516789,0.45521345,-0.9477,-7.1754,2.12213,-1.514,-8.488,0.29673,NaN,NaN,419.0,NaN,316.0,NaN,NaN
JGMJZPPLIFEVRU-UHFFFAOYSA-N,ClCCCn1c(Br)nc2c1c(=O)n(CCC)c(=O)n2CCC,ClCCCn1c(Br)nc2c1c(=O)n(CCC)c(=O)n2CCC,252.4,0.283042862,0.6914,-8.5222,2.61923,353.33199887575853,0.000214011,-1.1347,-8.8866,369.86391,-0.758,-9.109,3.18872,NaN,NaN,318.5,20417.379446695275,318.5,20417.379446695275,NaN
JGUZGNYPMHHYRK-UHFFFAOYSA-N,COc1cc(O)c2c(c1)oc(c(c2=O)O)c1ccc(c(c1)O)O,COc1cc(O)c2c(c1)oc(c(c2=O)O)c1ccc(c(c1)O)O,312.3,0.591506835,0.0039,-7.8332,5.20228,355.8673892236041,0.09383538,-1.2869,-8.3772,51.18451,-1.074,-8.784,1.79099,NaN,NaN,NaN,NaN,NaN,NaN,NaN
CZAUWJYFYBBPST-UHFFFAOYSA-N,COc1ccc(cc1)c1ccc2n(n1)c(C(=O)OC)c(c2C(=O)OC)C(=O)OC,COc1ccc(cc1)c1ccc2n(n1)c(C(=O)OC)c(c2C(=O)OC)C(=O)OC,308.8,0.052466474,-0.0374,-8.2562,4.86269,375.48212721230664,0.252243612,-1.3562,-8.3994,149.09092,-1.31,-9.184,3.83493,NaN,NaN,445.0,NaN,348.0,NaN,MeOH
AJCRFIGUONCGCZ-UHFFFAOYSA-N,CCOC(=O)C=C(c1cccc(c1)C(F)(F)F)c1cccc(c1)C(F)(F)F,CCOC(=O)C=C(c1cccc(c1)C(F)(F)F)c1cccc(c1)C(F)(F)F,256.7,0.357299548,-0.3078,-9.206,1.51401,286.53616456090515,0.028931084,-0.7928,-9.093,186.32848,-1.195,-10.242,3.70109,NaN,NaN,NaN,NaN,NaN,NaN,NaN
WRZLRBCOIJWGPH-UHFFFAOYSA-N,Cc1c(sc(=S)n1O)c1ccc(cc1)Cl,Cc1c(sc(=S)n1O)c1ccc(cc1)Cl,283.8,0.627796732,0.2834,-7.8668,3.96948,455.8242588437634,0.000727217,-0.9506,-8.7121,91.24162,-1.357,-8.449,3.72963,NaN,NaN,335.0,NaN,333.0,NaN,NaN
LOKQWECPKMHFQP-UHFFFAOYSA-N,CC[Si](c1cc2ccc3c4c2c(c1C(=O)NC(C)(C)C)ccc4ccc3)(C)C,CC[Si](c1cc2ccc3c4c2c(c1C(=O)NC(C)(C)C)ccc4ccc3)(C)C,334.9,0.283220299,-0.0545,-7.5276,3.25607,361.1540879857375,0.001493948,-0.7573,-7.3986,34.66594,-1.154,-8.363,3.60709,NaN,NaN,427.0,NaN,301.0,NaN,NaN
YNJZPDDFUIHJPL-UHFFFAOYSA-N,c1ccc(nc1)CN(c1ccc(cc1)C=Cc1cccnn1)Cc1ccccn1,c1ccc(nc1)CN(c1ccc(cc1)C=Cc1cccnn1)Cc1ccccn1,366.9,0.01055788,0.1565,-7.3166,3.73693,376.1656505021349,0.004841974,-0.4959,-7.7086,43.99926,-0.97,-8.435,2.6177,NaN,NaN,255,NaN,255,NaN,NaN
LNZAXTWBKAHYAC-UHFFFAOYSA-N,F[B-]1(F)[O+]=c2n(Cc3ccccc3)c3c(c2=NN1c1ccccc1)cccc3,F[B-]1(F)[O+]=c2n(Cc3ccccc3)c3c(c2=NN1c1ccccc1)cccc3,344.0,0.960196089,-0.6048,-7.9806,4.91346,497.72861664192556,0.551173893,-1.8921,-7.8169,138.50330,-1.314,-8.541,4.34437,374.8577264073755,0.6653090325,437.0,28170,430.0,16090,THF
SMTQTYDFXAMTLL-UHFFFAOYSA-N,c1scc(c1)c1ccc(c2c1[nH]cc2)c1cscc1,c1scc(c1)c1ccc(c2c1[nH]cc2)c1cscc1,283.6,0.559776016,0.7971,-7.544,2.50377,316.2862204222032,0.016277928,-0.093,-7.6185,51.02891,-0.604,-8.252,2.19588,NaN,NaN,319.0,NaN,306.0,NaN,NaN
JYTIAULLQOOQQT-UHFFFAOYSA-N,COc1ncccc1c1ccc2c(c1)c1ccccc1n2CCCCCCn1c2ccc(cc2c2c1cccc2)c1cccnc1OC,COc1ncccc1c1ccc2c(c1)c1ccccc1n2Cn1c2ccc(cc2c2c1cccc2)c1cccnc1OC,283.9,0.032140924,0.7258,-7.6714,0.88023,352.4280796063208,0.024319652,-0.1605,-7.2182,83.41315,-0.41,-8.145,0.60671,NaN,NaN,283,NaN,283,NaN,tetrahydrofuran
GMMIPANMIBRALH-UHFFFAOYSA-N,CCCC(=NO)c1ccncc1,C(=NO)c1ccncc1,262.1,0.006178822,0.1879,-9.2884,2.33514,303.06575019678235,0.002762224,-0.9138,-9.4449,42.63285,-0.873,-10.089,2.25966,NaN,NaN,254.0,NaN,204.0,NaN,NaN
ZJMUGSAEARDFJS-UHFFFAOYSA-N,Fc1ccc(cc1)c1nc2c(nc1c1ccc(cc1)F)ccc1c2C(=O)c2ccccc2C1=O,Fc1ccc(cc1)c1nc2c(nc1c1ccc(cc1)F)ccc1c2C(=O)c2ccccc2C1=O,403.6,0.008332824,-1.4522,-8.5501,1.26450,406.505568542635,0.022235855,-1.9818,-8.4073,110.35182,-2.009,-9.61,2.30877,NaN,NaN,264,58884.36553555884,264,58884.36553555884,Hexane
FTUMXKAADJOTLZ-UHFFFAOYSA-N,CC(=O)N(N(c1ccccc1[N+](=O)[O-])c1ccccc1)C(=O)C,CC(=O)N(N(c1ccccc1[N+](=O)[O-])c1ccccc1)C(=O)C,331.6,0.042395386,-0.2501,-8.2818,1.87256,516.8161667590815,0.018343828,-2.506,-8.5153,52.03107,-0.979,-9.297,2.5026,NaN,NaN,377,2950,377,2950,NaN
GGTVPUWEBRGMCO-UHFFFAOYSA-N,OCC(=O)C1(O)CC(OC2CC(NCc3cccnc3)C(C(O2)C)O)c2c(C1)c(O)c1c(c2O)C(=O)c2c(C1=O)cccc2OC,OCC(=O)C1(O)CC(OC2CC(NCc3cccnc3)C(C(O2)C)O)c2c(C1)c(O)c1c(c2O)C(=O)c2c(C1=O)cccc2OC,397.6,0.47260223,-1.4455,-8.2974,8.23630,419.4323356072519,0.000616479,-2.1929,-8.6788,85.70150,-1.985,-9.139,7.62071,NaN,NaN,NaN,NaN,NaN,NaN,NaN
HBDVJMHLDYQOIF-UHFFFAOYSA-N,Clc1ccc(cc1)C=C1N=C(N(C1=O)Cc1ccccc1)C,Clc1ccc(cc1)C=C1N=C(N(C1=O)Cc1ccccc1)C,318.8,1.025685136,-0.4787,-8.0566,4.19972,335.0924281229829,0.714418476,-1.1257,-8.3849,245.90335,-1.263,-9.017,4.63033,NaN,NaN,359.0,NaN,359.0,NaN,NaN
FBOJPKJVXZOMCC-UHFFFAOYSA-N,O=C(CCCC1=C2C(=CC(=[N+]2[B-](n2c1c(C)cc2C)(F)F)C)C)NCCCCNc1c2ccccc2nc2c1oc1c2cccc1,O=C(C1=C2C(=CC(=[N+]2[B-](n2c1c(C)cc2C)(F)F)C)C)NCNc1c2ccccc2nc2c1oc1c2cccc1,386.0,0.434650371,-1.0342,-7.4635,5.73399,540.4716582628756,0.483482459,-1.5193,-7.1369,61.51218,-1.862,-8.444,2.02932,NaN,NaN,508.5,NaN,508.5,NaN,NaN
JDSOTOSUEDFZPA-UHFFFAOYSA-N,COc1ccc2c(c1)oc(=O)cc2COc1ccccc1OC,COc1ccc2c(c1)oc(=O)cc2COc1ccccc1OC,279.1,0.356360728,0.2777,-8.2197,6.05116,330.4482899933467,0.353699644,-0.8399,-8.3843,105.00629,-0.848,-8.889,6.3017,NaN,NaN,325,NaN,325,NaN,NaN
XPVSHILWWNSQNY-UHFFFAOYSA-N,N#Cc1ccc(cc1)c1nc2CCc3c(c2c2c1c1ccccc1CC2)cccc3,N#Cc1ccc(cc1)c1nc2CCc3c(c2c2c1c1ccccc1CC2)cccc3,296.0,0.523145035,-0.16,-8.1721,7.32274,337.00516011281235,0.42465524,-0.5296,-7.7238,115.29348,-1.044,-8.912,6.67807,NaN,NaN,326.0,96700.0,272.0,51400.0,chloroform
BULAWVPBRGJVTM-UHFFFAOYSA-N,Cc1csc2c1S(=O)(=O)c1c2scc1C,Cc1csc2c1S(=O)(=O)c1c2scc1C,326.5,0.25787979,-0.287,-8.3562,3.19799,433.0569277174421,0.335591694,-1.7163,-8.257,50.83942,-1.661,-9.022,4.13515,NaN,NaN,364.0,NaN,360.0,NaN,NaN
BOBJUIRCOVVKJE-UHFFFAOYSA-N,CC(=O)Nc1ccc(cc1)N=Nc1nc2c(s1)cccc2,CC(=O)Nc1ccc(cc1)N=Nc1nc2c(s1)cccc2,472.3,0.004046004,-0.9629,-8.1774,3.52876,534.1843964045827,0.002005513,-1.5613,-8.0956,71.43531,-1.389,-8.954,4.94242,NaN,NaN,385.0,NaN,368.0,NaN,Methanol
UPAQVNOKYFLVBH-PKHIMPSTSA-N,CC([C@@H]1N(C(=O)OC1(c1ccccc1)c1ccccc1)C(=O)C(Br)C)C,CC([C@@H]1N(C(=O)OC1(c1ccccc1)c1ccccc1)C(=O)C(Br)C)C,238.9,0.002453741,0.7386,-9.3335,7.80556,304.8541883587501,0.000595459,-0.3641,-8.7481,423.86593,-0.369,-9.875,7.44541,NaN,NaN,NaN,NaN,NaN,NaN,NaN
HSHBOGFNJZVMSG-UHFFFAOYSA-N,Brc1ccc(cc1)C1=C2C(=O)NC(=C2C(=O)O1)c1ccccc1,Brc1ccc(cc1)C1=C2C(=O)NC(=C2C(=O)O1)c1ccccc1,393.2,0.987146587,-1.358,-7.8563,3.99849,424.4580568486945,0.794701866,-1.9046,-8.1303,471.79283,-1.846,-8.968,4.13671,NaN,NaN,493.0,NaN,454.0,NaN,dimethyl sulfoxide
CMMWQLABTLCMMC-UHFFFAOYSA-N,Cc1ccc(o1)C=Cc1ccc(cc1)c1nc(c(n1c1ccccc1)c1ccccc1)c1ccccc1,Cc1ccc(o1)C=Cc1ccc(cc1)c1nc(c(n1c1ccccc1)c1ccccc1)c1ccccc1,329.5,1.915567395,0.1546,-7.1411,4.28702,372.8848072345975,0.914179383,-0.4081,-7.0832,57.58904,-0.712,-8.378,5.4325,342.3653642492943,1.7034167478,365,NaN,365,NaN,NaN
DUBNSSMCSRPMHO-UHFFFAOYSA-N,NCCCCC1N(C)c2c(C1(C)C)c1ccccc1cc2,NC1N(C)c2c(C1(C)C)c1ccccc1cc2,320.2,0.08113739,0.8631,-7.1831,2.22629,335.6367038589704,0.047077983,-0.0151,-7.4498,21.63831,-0.429,-8.122,1.80313,NaN,NaN,307.0,NaN,217.0,NaN,NaN
HWKICVRBHRAOHT-UHFFFAOYSA-N,c1ccc(cc1)c1ccc(cc1)c1c2ccccc2c(c2c1cccc2)c1ccccc1,c1ccc(cc1)c1ccc(cc1)c1c2ccccc2c(c2c1cccc2)c1ccccc1,370.1,0.331471076,-0.0911,-7.3342,0.01997,387.4506200171989,0.335968087,-0.6276,-7.0985,6.32568,-1.075,-8.232,0.01294,NaN,NaN,406,10850,406,10850,NaN
OXGUCUVFOIWWQJ-HQBVPOQASA-N,Oc1cc(O)c2c(c1)oc(c(c2=O)O[C@@H]1O[C@@H](C)[C@@H]([C@H]([C@H]1O)O)O)c1ccc(c(c1)O)O,Oc1cc(O)c2c(c1)oc(c(c2=O)O[C@@H]1O[C@@H](C)[C@@H]([C@H]([C@H]1O)O)O)c1ccc(c(c1)O)O,292.7,0.417677966,0.0996,-8.1563,3.43125,368.1241045294052,0.029465385,-1.263,-8.4393,69.84981,-1.153,-9.128,2.04157,NaN,NaN,349.0,NaN,255.0,NaN,NaN
SLCUISROQWWKGA-UHFFFAOYSA-N,N#CC(=C1N=c2n(C1=NO)cc(cc2)Cl)c1ccc(cc1)C,N#CC(=C1N=c2n(C1=NO)cc(cc2)Cl)c1ccc(cc1)C,434.2,0.387081379,-1.1731,-7.6392,7.18681,415.35744859465217,0.362065542,-1.6585,-8.1079,239.48668,-1.891,-8.602,3.29695,NaN,NaN,550.0,NaN,450.0,NaN,NaN
NIXKBAZVOQAHGC-UHFFFAOYSA-N,OS(=O)(=O)Cc1ccccc1,OS(=O)(=O)Cc1ccccc1,232.1,0.009652618,0.9664,-9.6463,4.81385,268.3059909229683,0.000723484,-0.3867,-9.4721,140.33687,-0.237,-9.877,3.19314,NaN,NaN,574.0,NaN,563.0,NaN,Methanol
DIINSVHWAVXVNG-UHFFFAOYSA-N,COc1cc(N=Nc2ccccc2)cc(c1O)C=Nn1cc(C(=O)c2ccccc2)c(nc1=O)c1ccccc1,COc1cc(N=Nc2ccccc2)cc(c1O)C=Nn1cc(C(=O)c2ccccc2)c(nc1=O)c1ccccc1,425.5,0.000124664,-0.5221,-8.035,1.88384,523.5819189421608,0.005710881,-1.3372,-8.202,168.22453,-1.43,-8.939,3.24171,NaN,NaN,288.0,27180,283.0,19000,Ethylacetate
QNSYWIDNZKOBQO-UHFFFAOYSA-N,N#CC(=C1C=C(C=Cc2ccc(cc2)N(c2ccc(cc2)c2nc3c(s2)cccc3)c2ccccc2)CC(C1)(C)C)C#N,N#CC(=C1C=C(C=Cc2ccc(cc2)N(c2ccc(cc2)c2nc3c(s2)cccc3)c2ccccc2)CC(C1)(C)C)C#N,386.6,2.037708475,-1.2831,-7.4073,9.93158,403.463060219667,1.207310625,-1.5031,-7.4539,279.65729,-1.688,-8.296,8.62462,418.17327063050845,1.7655117136,494.0,NaN,306.0,NaN,NaN
WJMVHHSFBWYDSF-UHFFFAOYSA-N,COc1ccc(cc1)n1c(nc(c1c1ccccc1)c1ccccc1)c1ccc2c(c1)c1ccccc1n2CC,COc1ccc(cc1)n1c(nc(c1c1ccccc1)c1ccccc1)c1ccc2c(c1)c1ccccc1n2CC,294.7,0.02388609,0.8215,-7.1373,5.10757,360.2097571339444,0.363560174,-0.0768,-7.0139,28.13372,-0.356,-8.082,5.67547,NaN,NaN,305.0,51750.0,300.0,39050.0,Toluene
ADDVXPNWRMIJML-UHFFFAOYSA-N,N#Cc1cnn2c1nc(C)c1c2N(CC1)c1cccc(c1)C,N#Cc1cnn2c1nc(C)c1c2N(CC1)c1cccc(c1)C,285.9,0.414402104,0.6303,-7.8537,9.53751,379.8535490364696,0.183450924,-0.682,-7.8275,109.62140,-0.887,-8.621,10.74522,NaN,NaN,377,NaN,377,NaN,NaN
QWKKYJLAUWFPDB-UHFFFAOYSA-N,[O-][N+](=O)c1ccc(cc1)S(=O)(=O)N,[O-][N+](=O)c1ccc(cc1)S(=O)(=O)N,318.6,1.812e-06,-0.9819,-10.4442,4.00398,430.65022023446915,2.1e-07,-3.0975,-10.7562,31.27036,-1.896,-10.972,3.78123,NaN,NaN,261,11200,261,11200,MeCN
LVLZIVSVMKETDO-UHFFFAOYSA-N,c1ccc(cc1)c1cccc(n1)c1nccc(c1)c1ccc(cc1)C=Cc1c2ccccc2cc2c1cccc2,c1ccc(cc1)c1cccc(n1)c1nccc(c1)c1ccc(cc1)C=Cc1c2ccccc2cc2c1cccc2,376.9,0.533320681,-0.3256,-7.3312,0.66286,376.50834620559874,0.353081566,-0.6814,-7.2389,98.88981,-1.141,-8.326,0.71247,NaN,NaN,498.0,NaN,366.0,NaN,DMF
SRNLCTRDYFNLSF-SFHVURJKSA-N,O=C([C@H](Cc1ccccc1)N)Nc1cccc(n1)c1cccc(n1)c1ccccn1,O=C([C@H](Cc1ccccc1)N)Nc1cccc(n1)c1cccc(n1)c1ccccn1,269.9,0.565799922,0.3038,-8.2695,1.92902,326.79019084212877,0.664867339,-0.3869,-7.9819,65.67160,-0.898,-8.979,2.0859,NaN,NaN,303,20417.379446695275,303,20417.379446695275,NaN
AUDWGOBAWASOPK-UHFFFAOYSA-N,CCOC(=O)c1c(C(=O)OCC)c2n(c1C(=O)c1ccc(cc1)Br)c(ccc2)c1ccccn1,CCOC(=O)c1c(C(=O)OCC)c2n(c1C(=O)c1ccc(cc1)Br)c(ccc2)c1ccccn1,338.6,0.156737256,-0.3092,-7.8723,2.09433,421.28507783045757,0.126825608,-1.1772,-7.8213,348.47444,-1.191,-9.004,3.25356,NaN,NaN,244.8,NaN,244.8,NaN,MeOH
NTZMSBAAHBICLE-UHFFFAOYSA-N,N#Cc1cc(ccc1C#N)[N+](=O)[O-],N#Cc1cc(ccc1C#N)[N+](=O)[O-],318.9,1.7e-08,-1.8491,-10.934,3.95945,330.4482899933467,0.087381189,-3.1967,-10.5043,42.50636,-2.539,-11.495,3.1656,NaN,NaN,710,NaN,710,NaN,NaN
HMPXKROSTASOMP-UHFFFAOYSA-N,Brc1cccc(c1)[N+](=Cc1ccc2c(c1)Sc1c(N2C)cccc1)[O-],Brc1cccc(c1)[N+](=Cc1ccc2c(c1)Sc1c(N2C)cccc1)[O-],336.3,0.591472627,-0.0986,-7.255,4.00017,388.1784546196107,0.345679211,-1.146,-7.8426,481.19755,-1.181,-7.617,1.67511,NaN,NaN,317,NaN,317,NaN,dichloromethane
CJOFLTBOROGWFF-UHFFFAOYSA-N,Cc1sc(c(c1)C1=C(C(=O)N(C1=O)Cc1ccccc1)c1cc(sc1C)C)C,Cc1sc(c(c1)C1=C(C(=O)N(C1=O)Cc1ccccc1)c1cc(sc1C)C)C,356.9,0.154186247,-0.6243,-8.135,1.92820,441.6964674225282,0.119333895,-1.6719,-7.9866,105.57027,-1.313,-8.704,2.21652,NaN,NaN,504.0,NaN,231.0,NaN,NaN
VXKXMHDXFLFIFI-UHFFFAOYSA-N,Brc1cc2CCNc2c(c1)[N+](=O)[O-],Brc1cc2CCNc2c(c1)[N+](=O)[O-],339.0,0.170205587,-0.373,-8.0435,5.76386,460.2234536210232,0.132677179,-2.463,-8.7492,202.25103,-1.135,-8.859,6.68018,NaN,NaN,434.0,NaN,413.0,NaN,NaN
NHNCFENOUYGUML-UHFFFAOYSA-N,CCOc1ccc(cc1)N=Nc1ccc(c2c1cccn2)O,CCOc1ccc(cc1)N=Nc1ccc(c2c1cccn2)O,427.9,1.7353e-05,-0.5041,-7.5679,2.59970,539.7657745124234,0.031477726,-1.2431,-7.8096,111.35791,-1.302,-8.47,3.79849,NaN,NaN,410.0,NaN,394.0,NaN,DMSO
UONGCBNCSYBXJI-UHFFFAOYSA-N,Cc1ccc(cc1)C#Cc1ccc(cc1)n1c2ccccc2c2c1cccc2,Cc1ccc(cc1)C#Cc1ccc(cc1)n1c2ccccc2c2c1cccc2,287.4,0.081969929,0.3917,-7.6562,2.72393,335.81852222509116,0.000221661,0.0207,-7.5373,56.05789,-0.653,-8.19,2.21616,NaN,NaN,367.0,26500.0,330.0,26500.0,NaN
OZJKHHPGLXHUET-UHFFFAOYSA-N,O=c1oc(=O)c2c(=O)ccc(=O)c2[nH]c2c1[nH]cn2,O=c1oc(=O)c2c(=O)ccc(=O)c2[nH]c2c1[nH]cn2,416.6,0.066931487,-1.8886,-8.9384,4.67476,461.250738115713,0.080224978,-2.916,-8.9726,44.29170,-2.352,-9.684,4.4049,NaN,NaN,246,NaN,246,NaN,NaN
RESTWAHJFMZUIZ-UHFFFAOYSA-N,CCc1ccc(cc1)[N+](=O)[O-],CCc1ccc(cc1)[N+](=O)[O-],315.4,8.799e-06,-0.3617,-9.796,5.26672,420.8560706228909,1.2163e-05,-2.3946,-9.6884,132.75467,-1.179,-10.377,5.93728,NaN,NaN,279.4,NaN,277.9,NaN,NaN
KOEUOBJBBNWURM-UHFFFAOYSA-N,CCOC(=O)C(C(=O)OCC)(CCCC=C(c1ccccc1)c1ccccc1)CC,CCOC(=O)C(C(=O)OCC)(C=C(c1ccccc1)c1ccccc1)CC,246.8,0.212363879,1.0615,-8.3683,3.32385,279.0551393326664,0.011791481,-0.1536,-8.2576,85.10188,-0.034,-9.328,3.01309,NaN,NaN,194,NaN,194,NaN,CH3CN
OQBHCQNCMRMCCF-UHFFFAOYSA-N,Oc1ccccc1c1sc(nc1O)c1ccccn1,Oc1ccccc1c1sc(nc1O)c1ccccn1,316.5,0.85255602,-0.2041,-7.848,4.05139,411.4975054945359,0.589850347,-1.1386,-7.5755,28.04524,-1.494,-8.758,3.91336,335.3008437927345,0.6449988839,377.0,NaN,362.0,NaN,Dioxane
IGCOESWASXUXAV-UHFFFAOYSA-N,OC(=O)C1=C2Nc3ccccc3C(=O)NC2(C=CC1=O)O,OC(=O)C1=C2Nc3ccccc3C(=O)NC2(C=CC1=O)O,310.6,0.300078761,-0.7074,-8.7174,5.97405,363.0576820073314,0.001522358,-1.5668,-8.9826,99.96561,-1.652,-9.636,7.40718,NaN,NaN,213,NaN,213,NaN,NaN
PASKPJFYIMJNGZ-UHFFFAOYSA-N,Cc1ccc2c(c1)C(=CC(N2C)(C)C)C,Cc1ccc2c(c1)C(=CC(N2C)(C)C)C,291.8,0.054711659,1.1654,-7.6933,0.71715,309.8055932171506,0.108143463,0.332,-7.7173,14.00009,0.136,-7.571,1.35529,NaN,NaN,345,NaN,345,NaN,NaN
SZHCUESJPQHPFL-UHFFFAOYSA-N,COc1ccc(cc1)C(=O)On1c(=O)c2cccc3c2c(c1=S)ccc3,COc1ccc(cc1)C(=O)On1c(=O)c2cccc3c2c(c1=S)ccc3,407.0,0.00064017,-1.1893,-8.522,2.85320,543.3137528724964,0.000478857,-1.8061,-8.5422,72.49139,-1.896,-8.718,2.77535,NaN,NaN,454.0,NaN,390.0,NaN,NaN
DYAKDUQLGSJVPY-UHFFFAOYSA-N,CCCCCCCCOc1ccc(cc1)N1c2ccccc2Sc2c1ccc(c2)C=C(C(=O)O)C#N,COc1ccc(cc1)N1c2ccccc2Sc2c1ccc(c2)C=C(C(=O)O)C#N,365.5,0.408116678,-0.7012,-7.5485,6.64903,381.48984124770357,0.567486256,-1.4208,-7.8167,207.07666,-1.437,-7.853,5.70038,NaN,NaN,463,20640,463,20640,NaN
QUZAEBNFZMCLGI-UHFFFAOYSA-N,O=c1c2ccc(cc2sc2c1cccc2)c1ccc2c3c1ccc1c3c(cc2)ccc1,O=c1c2ccc(cc2sc2c1cccc2)c1ccc2c3c1ccc1c3c(cc2)ccc1,328.2,0.390347291,-0.2219,-7.5988,2.63562,362.1033831936439,0.052958328,-0.9152,-7.368,173.98743,-1.247,-8.453,2.13296,NaN,NaN,1500,NaN,1500,NaN,NaN
AOPRVOIVQZMGPU-UHFFFAOYSA-N,O=C(c1ccc(cc1)[N+](=O)[O-])Oc1c(cc(cc1[N+](=O)[O-])[N+](=O)[O-])[N+](=O)[O-],O=C(c1ccc(cc1)[N+](=O)[O-])Oc1c(cc(cc1[N+](=O)[O-])[N+](=O)[O-])[N+](=O)[O-],320.8,8.3e-07,-1.7679,-10.6693,1.67200,435.1849715882894,0.000401292,-3.7673,-10.5076,60.35706,-2.747,-11.302,1.13497,NaN,NaN,250.0,19230.917289101577,231.0,19230.917289101577,NaN
DBAROAYNJNVPES-UHFFFAOYSA-N,CCCNc1ccc2c3c1cccc3c(=O)n(c2=O)CCCCCC(=O)OC,CNc1ccc2c3c1cccc3c(=O)n(c2=O)C(=O)OC,343.0,0.3191921,-0.6341,-8.0422,7.76750,367.2517725281507,0.349003254,-1.615,-8.3816,152.53565,-1.419,-8.735,9.62692,NaN,NaN,449.0,NaN,427.0,NaN,DMSO
RDROURTWZBUWIV-UHFFFAOYSA-N,Cc1cc(c(cc1c1ccc(cc1)c1nc2c([nH]1)cccc2)C)c1ccc(cc1)c1nc2c([nH]1)cccc2,Cc1cc(c(cc1c1ccc(cc1)c1nc2c([nH]1)cccc2)C)c1ccc(cc1)c1nc2c([nH]1)cccc2,291.1,2.526396426,0.1536,-7.8883,0.00134,346.6150360791268,1.296880117,-0.5215,-7.6665,0.22185,-0.814,-8.843,0.0746,NaN,NaN,323,NaN,323,NaN,NaN
HTPPYBBNNVACGE-UHFFFAOYSA-N,CN(c1ccc(cc1)C=Nc1nc(C#N)c(nc1C#N)N=Cc1ccc(cc1)N(C)C)C,CN(c1ccc(cc1)C=Nc1nc(C#N)c(nc1C#N)N=Cc1ccc(cc1)N(C)C)C,383.2,2.339239651,-0.8556,-7.3744,0.02174,417.59581813911643,1.337032717,-1.272,-7.5657,1.62660,-1.836,-8.23,0.1809,405.95983435132916,2.1438419616,573.0,67300,507.0,67300,NaN
XOGAGMBVIMRJEP-UHFFFAOYSA-N,Fc1ccc(cc1)C=CC(=O)c1nccnc1C,Fc1ccc(cc1)C=CC(=O)c1nccnc1C,357.0,0.001626431,-0.6698,-8.6849,1.89975,404.2523586746125,0.00211726,-1.3603,-8.8245,50.87545,-1.378,-9.682,1.31803,NaN,NaN,305,NaN,305,NaN,ethanol
RGTBJCHMYOPSEZ-UHFFFAOYSA-N,Cc1ccc(cc1)c1cnc(n1C)c1ccc(cc1)c1nc2c(s1)cccc2,Cc1ccc(cc1)c1cnc(n1C)c1ccc(cc1)c1nc2c(s1)cccc2,314.1,1.654908191,-0.1348,-7.6262,3.46065,347.3919820832269,0.784580653,-0.6307,-7.4927,229.01218,-1.139,-8.752,4.36212,325.08506518062734,1.5859142675,342,32000,342,32000,NaN
JWPAANLAPNFKIT-UHFFFAOYSA-N,CN(c1ccc(cc1)c1nc2n(c1Cc1ccccc1)cccc2)C,CN(c1ccc(cc1)c1nc2n(c1Cc1ccccc1)cccc2)C,299.8,0.197159959,0.9254,-7.015,2.26399,376.6227169061472,0.272404636,-0.2219,-7.0872,52.40705,-0.486,-7.97,2.16257,NaN,NaN,NaN,NaN,NaN,NaN,NaN
VJJWVSYPLMLHHI-UHFFFAOYSA-N,O=C(Nc1ccccc1c1scc(n1)c1ccccc1)Nc1ccccc1,O=C(Nc1ccccc1c1scc(n1)c1ccccc1)Nc1ccccc1,305.8,0.41453915,-0.0286,-7.8694,4.92679,357.2002258873629,0.302583154,-0.8599,-7.9581,136.70577,-1.264,-8.608,3.83714,NaN,NaN,339.0,NaN,314.0,NaN,NaN
XDWGEGZDMFHZBL-UHFFFAOYSA-N,Nc1nc(c(s1)c1ccccc1)c1ccccc1,Nc1nc(c(s1)c1ccccc1)c1ccccc1,290.1,0.297085729,0.738,-7.59,1.66280,346.42134228975596,0.243075522,-0.0218,-7.4082,131.33951,-0.716,-8.454,1.76681,NaN,NaN,417.0,NaN,417.0,NaN,NaN
ULOTXPTWJAUGGE-HHHXNRCGSA-N,OC(=O)[C@H](NS(=O)(=O)c1ccc(cc1)N1CCC(CC1)c1ccccc1)Cc1c[nH]c2c1cccc2,OC(=O)[C@H](NS(=O)(=O)c1ccc(cc1)N1CCC(CC1)c1ccccc1)Cc1c[nH]c2c1cccc2,264.5,0.058896202,0.8504,-8.0329,10.10744,304.9291647946475,0.008267923,-0.5412,-8.1607,436.16045,-0.516,-8.483,7.1535,NaN,NaN,308,NaN,308,NaN,NaN
VIQMJMDPUIBXQO-UHFFFAOYSA-N,Brc1cc(C)c(c2c1C(=O)c1ccccc1C2=O)N,Brc1cc(C)c(c2c1C(=O)c1ccccc1C2=O)N,375.5,0.246110423,-0.9762,-8.0596,3.68010,409.18877361552364,0.014337043,-1.7397,-8.5193,230.72270,-1.462,-8.661,4.30803,NaN,NaN,485,NaN,485,NaN,NaN
KWNQCQVEXBFZSZ-UHFFFAOYSA-N,c1ccc2c(c1)sc(n2)N=Nc1ccc(n1c1cccc2c1cccc2)c1cccs1,c1ccc2c(c1)sc(n2)N=Nc1ccc(n1c1cccc2c1cccc2)c1cccs1,449.0,0.011536905,-0.9229,-7.4736,2.82732,543.7903438837881,0.001261064,-1.7535,-7.4382,173.63162,-1.497,-8.603,2.93287,NaN,NaN,528.0,NaN,491.0,NaN,DMSO
HCSJMOVCADFKIG-UHFFFAOYSA-N,C[Si](c1ccc(c2c1cccc2)[Si](O)(C)C)(O)C,C[Si](c1ccc(c2c1cccc2)[Si](O)(C)C)(O)C,292.7,0.106797365,0.3273,-8.2446,1.33179,313.249616992177,0.002445896,0.0567,-7.7482,8.43410,-0.344,-8.62,1.97019,NaN,NaN,300.0,7600,283.0,5600,NaN
FBEHXMYQXIKGMV-UHFFFAOYSA-N,CCCCCCOc1cc(C=C(C(=O)O)C#N)c(cc1n1nnc(c1)c1ccc(cc1)N(c1ccccc1)c1ccccc1)OCCCCCC,COc1cc(C=C(C(=O)O)C#N)c(cc1n1nnc(c1)c1ccc(cc1)N(c1ccccc1)c1ccccc1)OC,327.7,1.224719392,-0.9719,-7.1839,4.46859,362.84518116916496,0.805986502,-1.5666,-7.2749,474.14217,-1.843,-7.963,2.30478,375.311618008898,0.8259512015,420.0,NaN,312.0,NaN,NaN