inchikey,smi_pre,smi_post,lambda_sTDA (nm),f1_sTDA,lumo_dft,homo_dft,dmom_dft (D),lambda_z (nm),f1_z,lumo_z,homo_z,dmom_z (D),lumo_mopac,homo_mopac,dmom_mopac (D),lambda_tddft (nm),f1_tddft,lambda_exp_max (nm),epsilon_exp_max ,lambda_exp_min (nm),epsilon_exp_min ,solvent
KKLBPVXKMBLCQX-UHFFFAOYSA-N,CCN(c1ccc(cc1)C=C1CCC(=Cc2ccc(cc2)N(CC)CC)C1=O)CC,CCN(c1ccc(cc1)C=C1CCC(=Cc2ccc(cc2)N(CC)CC)C1=O)CC,348.4,0.101213654,-0.0052,-6.935,5.45586,380.55309516729176,0.004291299,-0.516,-7.7146,93.33350,-0.254,-7.937,4.98498,NaN,NaN,549.0,NaN,479.5,NaN,NaN
GBCWJCWBTVCZPF-UHFFFAOYSA-N,[O-][N+](=O)c1cc2C(=CC=CC=CC=C3N(C)c4c(C3(C)C)cccc4)c3c(c2c(c1)[N+](=O)[O-])c(cc(c3)[N+](=O)[O-])[N+](=O)[O-],[O-][N+](=O)c1cc2C(=CC=CC=CC=C3N(C)c4c(C3(C)C)cccc4)c3c(c2c(c1)[N+](=O)[O-])c(cc(c3)[N+](=O)[O-])[N+](=O)[O-],485.5,1.431071597,-1.8425,-7.2158,14.60974,681.981289359206,0.052514667,-3.6222,-7.4295,684.28148,-2.805,-8.269,15.10526,575.252600608915,1.141635761,773,NaN,773,NaN,Toluene
FFVGGDSGVYLONZ-UHFFFAOYSA-N,CCOC(=O)c1cc2cc3ccccc3nc2[nH]c1=O,CCOC(=O)c1cc2cc3ccccc3nc2[nH]c1=O,325.1,0.147217032,-0.9083,-8.6594,3.65994,364.98144953047887,0.447041922,-1.6992,-8.704,83.07865,-1.864,-9.278,4.47176,NaN,NaN,377,NaN,377,NaN,acetone
OIRDTQYFTABQOQ-UHFFFAOYSA-N,OCC1OC(C(C1O)O)n1cnc2c1ncnc2N,OCC1OC(C(C1O)O)n1cnc2c1ncnc2N,242.0,0.235049054,0.9837,-8.6566,2.31515,302.9176604092442,0.190497003,-0.2282,-8.2853,24.47633,-0.595,-9.139,1.77828,NaN,NaN,357.9,NaN,354.2,NaN,Cyclohexane
QZULJVDMLCPRAO-UHFFFAOYSA-N,CC(=O)C(C(c1ccccc1F)O)Cl,CC(=O)C(C(c1ccccc1F)O)Cl,270.1,0.002019416,1.0811,-9.1846,1.73928,330.09637488153265,0.000115206,-0.3383,-9.304,122.11839,-0.279,-9.894,2.66739,NaN,NaN,NaN,NaN,NaN,NaN,NaN
CPRFVOKXPKJSOF-UHFFFAOYSA-N,Clc1ccc(cc1)C1(C=Cc2c(O1)ccc1c2ccc(c1)Br)c1ccc(cc1)Cl,Clc1ccc(cc1)C1(C=Cc2c(O1)ccc1c2ccc(c1)Br)c1ccc(cc1)Cl,325.5,0.215894354,-0.0431,-7.9669,0.87321,349.15291018164925,0.231641416,-0.8527,-7.9597,245.81301,-1.197,-8.771,1.03233,NaN,NaN,427,NaN,427,NaN,NaN
NIOQXFRLZIIVCT-UHFFFAOYSA-N,Nc1ccc2c(c1)nn(n2)c1ccccc1,Nc1ccc2c(c1)nn(n2)c1ccccc1,307.2,0.411776008,0.1455,-7.7461,1.85346,387.9355394415008,0.588363333,-1.1309,-7.821,24.07027,-1.077,-8.337,1.584,NaN,NaN,628,NaN,628,NaN,NaN
OBMOYDUAOZYUGC-UHFFFAOYSA-N,CCCCCCCCCCCCCCCCOc1ccc(cc1)C1=C2C=CC(=N2)C(=c2ccc(=C(C3=NC(=C(c4[nH]c1cc4)c1ccc(cc1)O)C=C3)c1ccc(cc1)O)[nH]2)c1ccc(cc1)O,COc1ccc(cc1)C1=C2C=CC(=N2)C(=c2ccc(=C(C3=NC(=C(c4[nH]c1cc4)c1ccc(cc1)O)C=C3)c1ccc(cc1)O)[nH]2)c1ccc(cc1)O,642.1,0.009383806,-0.9795,-6.6322,2.48924,606.576313138472,0.01092705,-1.354,-6.7879,54.60018,-1.7,-7.912,0.46044,NaN,NaN,720.0,NaN,657.0,NaN,chloroform
BEUGBYXJXMVRFO-UHFFFAOYSA-N,CN(c1ccc(cc1)C(=O)c1ccccc1)C,CN(c1ccc(cc1)C(=O)c1ccccc1)C,298.7,0.008319159,0.4877,-7.7044,5.29889,360.9438090407676,0.001754457,-0.5103,-8.2891,54.66949,-0.392,-8.426,4.95565,NaN,NaN,251,NaN,251,NaN,NaN
VTFDZNSBOVIGBE-UHFFFAOYSA-N,OCC1OC(CC1O)n1c(C=Cc2ccc(cc2)C(F)(F)F)nc2c1ncnc2N,OCC1OC(CC1O)n1c(C=Cc2ccc(cc2)C(F)(F)F)nc2c1ncnc2N,314.6,1.250729511,-0.533,-8.0825,2.14739,364.12393070632504,0.699415659,-0.9613,-7.8049,213.86246,-1.358,-8.979,1.95557,329.76273474450625,1.0295958014,338,NaN,338,NaN,NaN
DHKAXFMRLQDDPA-UHFFFAOYSA-N,OCCn1c(=O)c2ccc(c3c2c(c1=O)ccc3)Oc1ccccc1C,OCCn1c(=O)c2ccc(c3c2c(c1=O)ccc3)Oc1ccccc1C,326.3,0.347345099,-0.7839,-8.5378,7.52942,345.1675902157674,0.421587263,-1.6823,-8.6978,155.72763,-1.62,-9.374,8.30984,NaN,NaN,NaN,NaN,NaN,NaN,NaN
WCJWSZCYVOFQJQ-UHFFFAOYSA-N,COC(=O)c1n2nc(C=Cc3c4ccccc4cc4c3cccc4)ccc2c(c1C(=O)OC)C(=O)OC,COC(=O)c1n2nc(C=Cc3c4ccccc4cc4c3cccc4)ccc2c(c1C(=O)OC)C(=O)OC,380.7,0.512373084,-0.5933,-7.495,3.77373,380.66993676850984,0.545826045,-1.3255,-7.4862,336.22605,-1.426,-8.567,5.296,NaN,NaN,510.0,NaN,373.0,NaN,Hexane
ZTWQZJLUUZHJGS-UHFFFAOYSA-N,O=C1c2ccccc2c2c3c1ccc1c3c(cc2)C(=O)c2c1cccc2,O=C1c2ccccc2c2c3c1ccc1c3c(cc2)C(=O)c2c1cccc2,381.9,0.686068462,-1.5816,-8.2286,0.00022,406.505568542635,0.836456009,-2.0297,-8.1378,0.00632,-2.075,-9.029,0.00167,NaN,NaN,NaN,NaN,NaN,NaN,NaN
NMJYOPUCPZYZBO-UHFFFAOYSA-N,CCCCCCCCCCCCN(c1ccc2c3c1cccc3c1c3c2ccc2c3c(cc1)C(=O)OC2=O)CCCCCCCCCCCC,CN(c1ccc2c3c1cccc3c1c3c2ccc2c3c(cc1)C(=O)OC2=O)C,432.8,0.85958154,-1.4579,-7.4881,11.14757,456.32756130108083,0.831222862,-1.9902,-7.6249,255.83158,-2.192,-8.684,11.20235,NaN,NaN,566.0,NaN,458.0,NaN,NaN
IYRGXJIJGHOCFS-UHFFFAOYSA-N,Cc1ccc2c(n1)c1nc(C)ccc1cc2,Cc1ccc2c(n1)c1nc(C)ccc1cc2,287.2,0.039937232,0.469,-8.2797,2.15427,335.0924281229829,0.000733057,-0.2694,-7.912,1.97047,-0.798,-8.934,2.14665,NaN,NaN,373.0,73040,229.0,1300,NaN
AYERJLNQAMUWGK-UHFFFAOYSA-N,CCCCCCc1csc(c1)c1ccc(s1)c1c(F)c(F)c(c2c1nsn2)c1ccc(s1)c1scc(c1)CCCCCC,Cc1csc(c1)c1ccc(s1)c1c(F)c(F)c(c2c1nsn2)c1ccc(s1)c1scc(c1)C,437.6,1.319633137,-1.2035,-7.2734,0.82643,584.5553908793195,0.459799826,-2.3346,-7.3403,131.99401,-2.069,-8.695,1.96377,487.2443331338499,1.045893693,361,NaN,361,NaN,NaN
CXSYMURTVSLOLU-UHFFFAOYSA-N,Cc1cc(C)c(c2c1C(=O)c1ccccc1C2=O)N,Cc1cc(C)c(c2c1C(=O)c1ccccc1C2=O)N,372.3,0.269967825,-0.7951,-7.8992,2.41984,418.0182009625882,0.002526232,-1.6638,-8.1682,40.78325,-1.328,-8.417,2.7584,NaN,NaN,577.4,NaN,570.3,NaN,NaN
XOPURPJMNMAYKB-UHFFFAOYSA-N,Brc1ccc(cc1)c1cc(nc(c1)c1ccncc1)c1ccncc1,Brc1ccc(cc1)c1cc(nc(c1)c1ccncc1)c1ccncc1,263.5,0.119750519,-0.2853,-9.1594,3.22848,300.20387023124374,0.217455868,-0.6649,-8.7791,439.79825,-1.16,-9.763,2.91883,NaN,NaN,263,NaN,263,NaN,NaN
WVKSTFDYXLMMCS-UHFFFAOYSA-N,CCOC(=O)c1ccn2c(c1)cc(n2)c1ccc(c(c1)OC)OC,CCOC(=O)c1ccn2c(c1)cc(n2)c1ccc(c(c1)OC)OC,313.8,0.060212807,0.1046,-7.8414,3.84401,381.959945796376,0.221397004,-1.157,-7.8336,25.09021,-1.098,-8.339,3.88548,NaN,NaN,297.0,NaN,277.0,NaN,Cyclohexane
RYEUCWVLPGWHQO-UHFFFAOYSA-N,c1ccc(cc1)C#Cc1ccc(s1)C#Cc1ccccc1,c1ccc(cc1)C#Cc1ccc(s1)C#Cc1ccccc1,332.0,1.971825266,-0.3023,-7.5387,0.22759,391.3642626436353,0.725558449,-0.4884,-7.2752,10.88236,-1.094,-8.87,0.02262,354.49376128445874,1.536647002,252,NaN,252,NaN,NaN
GOAVTJSMJNFAOF-UHFFFAOYSA-N,COc1ccc(cc1)C1C2CCCC(C2=O)(C(N1N=O)c1ccc(cc1)OC)C,COc1ccc(cc1)C1C2C(C2=O)(C(N1N=O)c1ccc(cc1)OC)C,394.2,0.004760642,0.6429,-8.2298,1.62516,515.3125453262828,0.001186736,-1.165,-8.4798,34.88952,0.062,-8.864,1.964,NaN,NaN,435,NaN,435,NaN,KBr
YCILNIYOPLQRAX-UHFFFAOYSA-N,O=C1OC(C(=C1Br)Nc1ccc(c(c1)C)C)OCc1ccccc1,O=C1OC(C(=C1Br)Nc1ccc(c(c1)C)C)OCc1ccccc1,253.0,0.526473,0.7615,-8.257,7.91402,327.1350881411706,0.002154296,-0.5845,-8.5987,520.02465,-0.628,-8.743,9.00091,NaN,NaN,290,NaN,290,NaN,NaN
IXHJUEXLCAPIIS-UHFFFAOYSA-N,COc1ccc2c(c1)ccc(c2)C#CC(O)C,COc1ccc2c(c1)ccc(c2)C#CC(O)C,295.1,0.099322033,0.546,-7.814,2.65821,331.41993692997505,0.05540941,-0.2677,-7.7124,26.29024,-0.74,-8.64,3.16019,NaN,NaN,NaN,NaN,NaN,NaN,NaN
WHCPTFFIERCDSB-UHFFFAOYSA-N,CCN(c1ccc2c(c1)oc(=O)c(c2)C(=O)O)CC,CCN(c1ccc2c(c1)oc(=O)c(c2)C(=O)O)CC,311.6,0.757805462,-0.4479,-8.0712,11.19746,386.3639713477833,0.565133812,-1.6988,-8.4252,245.51562,-1.132,-8.644,10.39775,NaN,NaN,435,NaN,435,NaN,NaN
CPNILQXZZDZAKK-YGHZMKOFSA-N,[O-][N+](=O)N1C(c2ccccc2)C2CCC[C@@](C1c1ccccc1)(C2)C,[O-][N+](=O)N1C(c2ccccc2)C2CCC[C@@](C1c1ccccc1)(C2)C,272.8,0.003849131,1.1646,-8.9266,4.48898,487.55091783524836,0.013333525,-2.1769,-8.593,119.61519,-0.043,-9.386,5.05882,NaN,NaN,294,NaN,294,NaN,MeOH
WYUBVORPUHZTOI-UHFFFAOYSA-N,CCCCCCCCCCCCCCCCN(c1ccc(cc1)C(=c1ccc(=C(C#N)C#N)cc1)C(=C(C#N)C#N)c1ccc(s1)C=O)CCCCCCCCCCCCCCCC,CN(c1ccc(cc1)C(=c1ccc(=C(C#N)C#N)cc1)C(=C(C#N)C#N)c1ccc(s1)C=O)C,476.2,0.838462875,-2.4214,-7.8015,12.40170,425.76991210681206,1.328249231,-2.3342,-8.1509,229.20498,-2.562,-8.79,9.45017,NaN,NaN,696.0,NaN,341.0,NaN,CH 2 Cl
NXYJIRAEUHXAFI-UHFFFAOYSA-N,Oc1ccccc1CNCc1ccccc1OCCCOc1ccccc1CNCc1ccccc1O,Oc1ccccc1CNCc1ccccc1OCCCOc1ccccc1CNCc1ccccc1O,247.0,0.064786727,1.4185,-8.0225,1.75682,282.7461765233835,0.0222326,0.5446,-8.2845,72.88552,-0.173,-8.842,4.07521,NaN,NaN,0,7380,0,7380,DMF
VHVIUNDDZLVLIT-UHFFFAOYSA-N,Brc1ccc(cc1)c1nc2CCc3c(c2c2c1c1ccc(cc1CC2)Br)ccc(c3)Br,Brc1ccc(cc1)c1nc2CCc3c(c2c2c1c1ccc(cc1CC2)Br)ccc(c3)Br,295.3,0.48195095,-0.053,-8.0863,2.28796,331.77468130988404,0.387528392,-0.58,-7.9709,242.01637,-1.125,-8.995,2.54551,NaN,NaN,323.0,48000.0,269.0,24000.0,chloroform
FZKIKANFVINISJ-UHFFFAOYSA-N,N#CC(=C1C(CSc2c1cccc2)C(c1ccco1)C[N+](=O)[O-])C#N,N#CC(=C1C(CSc2c1cccc2)C(c1ccco1)C[N+](=O)[O-])C#N,339.8,0.129878247,-1.0972,-8.6327,7.88138,441.38198079566985,0.003580125,-2.8687,-8.7727,51.56366,-1.63,-8.862,6.67931,NaN,NaN,NaN,NaN,NaN,NaN,NaN
VFNXBQXLSLFPGF-UHFFFAOYSA-N,Cc1ccc(cc1)C(=O)CC(=O)c1ccc(cc1)F,Cc1ccc(cc1)C(=O)CC(=O)c1ccc(cc1)F,298.5,0.008524016,-0.1477,-9.287,2.05572,364.0170240913202,0.002476846,-1.203,-9.2218,136.31200,-0.89,-9.851,2.51262,NaN,NaN,358,NaN,358,NaN,NaN
YNRMRJMVFVZTMD-UHFFFAOYSA-N,Oc1c(C=Nc2ccccc2)cc(cc1C(C)(C)C)C(C)(C)C,Oc1c(C=Nc2ccccc2)cc(cc1C(C)(C)C)C(C)(C)C,307.6,0.50415146,0.0867,-7.9607,2.04134,349.54665465323836,0.00043202,-0.4171,-8.2363,107.61113,-0.439,-8.676,2.37238,NaN,NaN,603.0,NaN,373.0,NaN,NaN
IJFPVINAQGWBRJ-UHFFFAOYSA-N,CC(CCCCCOC(=O)c1ccccc1C(=O)OCCCCCC(C)C)C,CC(COC(=O)c1ccccc1C(=O)OC(C)C)C,247.4,0.035032017,0.4798,-9.5679,0.59167,286.53616456090515,0.006458231,-0.7666,-9.7054,47.76476,-0.758,-10.315,3.59725,NaN,NaN,235,NaN,235,NaN,NaN
NXXYKOUNUYWIHA-UHFFFAOYSA-N,Cc1cccc(c1O)C,Cc1cccc(c1O)C,240.3,0.026159092,1.9987,-8.2075,1.49329,282.55286783387345,0.002999296,0.7084,-8.5016,20.78716,0.271,-8.867,1.38139,NaN,NaN,421,NaN,421,NaN,NaN
LNAZSZZQBBIQJV-UHFFFAOYSA-N,[O-][N+](=O)c1c2ccccc2n(c1N)S(=O)(=O)c1ccccc1,[O-][N+](=O)c1c2ccccc2n(c1N)S(=O)(=O)c1ccccc1,296.6,0.002263525,-0.177,-8.1742,5.46613,438.26157089255446,0.173815146,-2.0504,-8.4377,136.24739,-1.298,-8.734,8.7153,NaN,NaN,202,NaN,202,NaN,NaN
SRNPMQHYWVKBAV-UHFFFAOYSA-N,Oc1ccc(cc1O)c1cc(=O)c2c(o1)cccc2,Oc1ccc(cc1O)c1cc(=O)c2c(o1)cccc2,293.2,0.005368962,0.0777,-8.3411,4.98054,366.0590445984755,0.001051757,-0.9655,-8.6947,72.07912,-0.974,-9.237,3.01199,NaN,NaN,342,NaN,342,NaN,NaN
XRCZKWWYKVAOMI-UHFFFAOYSA-N,Cn1ccc(=CC=C2C=C(Cl)c3c(C2=O)nccc3)cc1,Cn1ccc(=CC=C2C=C(Cl)c3c(C2=O)nccc3)cc1,435.9,0.973058874,-0.7019,-6.7913,11.01166,508.3402968655337,0.467008469,-1.3634,-7.1937,111.42875,-1.34,-7.747,11.29273,498.7296581224434,0.718807096,1492.5373134328358,NaN,334.0,NaN,THF
LFLIOYNYGXICME-UHFFFAOYSA-N,C(N=Cc1ccccn1)CN=Cc1ccccn1,C(N=Cc1ccccn1)CN=Cc1ccccn1,266.6,0.003036223,0.3794,-9.119,1.34993,300.20387023124374,0.004910737,-0.4027,-8.7881,3.88573,-0.686,-9.783,0.90515,NaN,NaN,606,NaN,606,NaN,NaN
IIEPSYXTLQWTFK-UHFFFAOYSA-N,O1CCN(CC1)c1ccc(cc1)N=Nc1ccc(c(c1)Nc1ccc(cc1)N1CCOCC1)N1CCOCC1,O1CCN(CC1)c1ccc(cc1)N=Nc1ccc(c(c1)Nc1ccc(cc1)N1CCOCC1)N1CCOCC1,425.9,0.00075195,-0.1755,-6.8935,0.93660,523.8031195838769,0.004671992,-1.1072,-7.5217,17.83261,-1.076,-7.939,2.38874,NaN,NaN,254,NaN,254,NaN,NaN
LYUPGQNTXUBJCT-UHFFFAOYSA-N,Clc1cccc(c1)C(=O)Oc1c(cc(cc1[N+](=O)[O-])[N+](=O)[O-])[N+](=O)[O-],Clc1cccc(c1)C(=O)Oc1c(cc(cc1[N+](=O)[O-])[N+](=O)[O-])[N+](=O)[O-],315.2,0.002772657,-1.5859,-9.7136,2.66471,436.87173504405797,0.000488088,-3.5716,-10.0416,84.23941,-2.538,-10.406,3.74238,NaN,NaN,230.0,20464.44636724674,222.0,20464.44636724674,NaN
WMCKQVKTYJORBJ-UHFFFAOYSA-N,Clc1cccc(c1)N=Nc1nc2c(s1)cc(cc2)[N+](=O)[O-],Clc1cccc(c1)N=Nc1nc2c(s1)cc(cc2)[N+](=O)[O-],476.7,0.000273839,-1.727,-9.2058,5.13306,527.5923336404411,0.002521218,-2.5416,-9.1783,110.58263,-2.225,-9.678,5.58087,NaN,NaN,343.0,NaN,334.0,NaN,Methanol
DRHNKHYXVJTLNN-UHFFFAOYSA-N,OCCN(c1ccc(cc1)N=Nc1ccc(cc1)N=Nc1ccc(cc1)S(=O)(=O)Nc1cc(OC)nc(n1)OC)CC,OCCN(c1ccc(cc1)N=Nc1ccc(cc1)N=Nc1ccc(cc1)S(=O)(=O)Nc1cc(OC)nc(n1)OC)CC,456.0,0.006938978,-1.2449,-7.5519,10.59788,525.1342583884102,0.000333712,-1.6983,-7.8433,655.59221,-1.742,-8.484,10.02998,NaN,NaN,454,NaN,454,NaN,NaN
XGNUNJRXMKJWBN-UHFFFAOYSA-N,CCCCCCn1c2ccc(cc2c2c1cccc2)c1cc(nc(c1)c1ccccn1)c1ccccn1,Cn1c2ccc(cc2c2c1cccc2)c1cc(nc(c1)c1ccccn1)c1ccccn1,294.9,0.033542056,0.3749,-7.6224,1.14856,328.60906017891244,0.01718066,-0.3853,-7.6802,62.29672,-0.85,-8.201,1.27469,NaN,NaN,309,NaN,309,NaN,DMF
YMFDHKOYLATDND-UHFFFAOYSA-N,CCC(c1cccc(c1)C)O,CCC(c1cccc(c1)C)O,236.4,0.001720564,1.6409,-8.9149,1.28654,274.9704999013166,0.004715642,0.6884,-8.6886,36.53187,0.145,-9.454,2.28695,NaN,NaN,NaN,NaN,NaN,NaN,NaN
LMOOJKXIZZSWRW-UHFFFAOYSA-N,S=C(Nc1cccc(n1)C)NCc1ccccc1,S=C(Nc1cccc(n1)C)NCc1ccccc1,275.1,0.000181412,0.7916,-8.023,6.00673,392.7279011894319,5.0954e-05,-0.378,-8.4204,147.50906,-0.618,-8.294,7.00409,NaN,NaN,315,NaN,315,NaN,NaN
AILMRQSLJJXBRW-UHFFFAOYSA-N,c1ccc(cc1)C=Cc1ccn2c(c1)nc(c2)c1ccccc1,c1ccc(cc1)C=Cc1ccn2c(c1)nc(c2)c1ccccc1,322.0,1.318200921,-0.101,-7.5096,3.37965,375.14129623450424,0.531482712,-0.5622,-7.3113,35.77197,-0.971,-8.64,3.69254,330.0875722404607,1.3067435442,410.0,28840.31503126606,354.0,17378.00828749376,TFA
NRKATKWNTSQLLO-UHFFFAOYSA-N,COc1ccc(cc1)C=CC(=O)c1nnn(c1C)c1ccnc2c1ccc(c2)Cl,COc1ccc(cc1)C=CC(=O)c1nnn(c1C)c1ccnc2c1ccc(c2)Cl,317.4,0.00020191,-0.519,-8.1177,1.90207,375.36844809416795,0.006153708,-1.1654,-8.3681,258.86265,-1.638,-8.918,1.8482,NaN,NaN,233,NaN,233,NaN,methanol
MHZPJFQRZQHLFY-UHFFFAOYSA-N,O=C1C(=Cc2cc3CCCN4c3c(c2O)CCC4)Oc2c1cccc2,O=C1C(=Cc2cc3CCCN4c3c(c2O)CCC4)Oc2c1cccc2,352.3,1.129664326,-0.4462,-7.0634,4.99472,371.5438969298881,0.107773936,-1.0456,-7.6756,133.67394,-0.984,-7.889,4.84116,382.7026978091782,0.9455424751,518,NaN,518,NaN,Methanol
DPOUMBACLZTBTO-UHFFFAOYSA-N,C=CCOc1nc(Nc2ccc3c(c2)nn(n3)c2cc(Cl)ccc2O)nc(n1)N1C(C)(C)CC(CC1(C)C)OCC=C,C=CCOc1nc(Nc2ccc3c(c2)nn(n3)c2cc(Cl)ccc2O)nc(n1)N1C(C)(C)CC(CC1(C)C)OCC=C,309.2,0.988182134,-0.4112,-8.215,3.14324,397.0035171485868,0.493334724,-1.6079,-8.2177,533.73116,-1.519,-8.773,4.04709,326.0339565826219,0.8469002876,346,NaN,346,NaN,NaN
RLGMFYULGXSKBK-UHFFFAOYSA-N,CCOC(=O)c1ccc(cc1)c1ccc(s1)c1ccc(s1)c1ccc(cc1)OC,CCOC(=O)c1ccc(cc1)c1ccc(s1)c1ccc(s1)c1ccc(cc1)OC,347.4,1.666461757,-0.2036,-7.3359,2.64176,415.21834697087627,0.834438901,-0.8916,-7.2357,28.38163,-1.198,-8.716,2.97658,372.09025242111414,1.4384441466,655.0,NaN,395.0,NaN,NaN
HOPUKALGFKIUNA-UHFFFAOYSA-N,CCN(c1ccc(cc1)C=Cc1ccc(cc1)C=Cc1ccc(cc1)Br)CC,CCN(c1ccc(cc1)C=Cc1ccc(cc1)C=Cc1ccc(cc1)Br)CC,360.1,2.421215807,-0.1587,-6.8616,5.97245,331.68592403826557,1.233286856,-0.3677,-7.4062,962.70470,-0.751,-7.983,5.47222,NaN,NaN,401.0,51000.0,395.0,42000.0,Toluene
HECGKCOICWUUJU-UHFFFAOYSA-N,c1ccc(cc1)P(CP(c1ccccc1)c1ccccc1)CP(c1ccccc1)c1ccccc1,c1ccc(cc1)P(CP(c1ccccc1)c1ccccc1)CP(c1ccccc1)c1ccccc1,273.4,0.085943501,0.9493,-7.5459,3.08679,275.45922773939935,0.001799419,0.4775,-8.3467,133.85144,-0.791,-8.397,6.31787,NaN,NaN,335,NaN,335,NaN,NaN
JUVIOZPCNVVQFO-HBGVWJBISA-N,COc1cc2c(cc1OC)OC[C@@H]1[C@H]2C(=O)c2c(O1)c1C[C@@H](Oc1cc2)C(=C)C,COc1cc2c(cc1OC)OC[C@@H]1[C@H]2C(=O)c2c(O1)c1C[C@@H](Oc1cc2)C(=C)C,284.9,0.004534182,0.4691,-8.1381,3.42727,350.2378486031177,0.002639967,-0.6601,-8.3183,82.94824,-0.558,-8.557,1.95999,NaN,NaN,100.0,NaN,1.0,NaN,NaN
JFZXPFXLVCFUHZ-UHFFFAOYSA-N,CCCCCCn1cc(c2c1cccc2)c1sc(c2c1cccc2)c1ccc(s1)C=O,Cn1cc(c2c1cccc2)c1sc(c2c1cccc2)c1ccc(s1)C=O,399.8,0.808822618,-0.5363,-7.055,7.62849,528.0417308581928,0.553643342,-1.3751,-6.8976,237.59448,-1.44,-8.04,7.55565,438.80443464604303,0.7022794142,525,NaN,525,NaN,CH 2 Cl
QVAMEGVXSWCNHA-UHFFFAOYSA-N,CCOC(=O)c1c(O)c(N=Nc2ccc(cc2)C#N)c2c(c1O)cccc2,CCOC(=O)c1c(O)c(N=Nc2ccc(cc2)C#N)c2c(c1O)cccc2,409.3,0.000386407,-1.1183,-7.9085,5.26729,551.5311316970802,0.011115316,-1.8619,-7.9826,52.12869,-1.7,-8.858,4.02657,NaN,NaN,462.0,NaN,425.0,NaN,DMSO
VVICVJOQZCFYQH-UHFFFAOYSA-N,CCOC(=O)C=c1sc2=NC3=C(C(n2c1=O)c1ccc(c(c1)OC)OC)CCCC3=Cc1ccc(c(c1)OC)OC,CCOC(=O)C=c1sc2=NC3=C(C(n2c1=O)c1ccc(c(c1)OC)OC)C3=Cc1ccc(c(c1)OC)OC,407.5,0.219932121,-1.0591,-6.9988,2.13149,513.6047986971982,0.204999468,-1.8694,-6.8551,218.45924,-1.777,-7.809,6.98258,NaN,NaN,323.52,NaN,323.52,NaN,NaN
HYZJCKYKOHLVJF-UHFFFAOYSA-N,c1ccc2c(c1)[nH]cn2,c1ccc2c(c1)[nH]cn2,245.3,0.055813336,1.3232,-8.5329,3.55890,299.6959110599557,0.110138766,0.1152,-8.1788,28.09649,-0.358,-9.264,3.6705,NaN,NaN,602.0,NaN,0.0,NaN,dichloromethane
XCUDSHHSGJCNAM-UHFFFAOYSA-N,[O-][N+](=O)c1cccc(c1)C=NNC(=Cc1ccc2c(n1)cccc2)C(C)(C)C,[O-][N+](=O)c1cccc(c1)C=NNC(=Cc1ccc2c(n1)cccc2)C(C)(C)C,356.9,1.030824744,-0.4381,-7.3919,5.79673,438.10670814665605,0.025448027,-2.5449,-7.53,203.04548,-1.357,-8.306,5.87034,380.97404439908877,0.8076762653,430,NaN,430,NaN,ethanol
NMQUUSAJUHPXBV-UHFFFAOYSA-N,COc1cccc(c1)N(c1cc(=O)[nH]c(n1)c1ccccc1)C,COc1cccc(c1)N(c1cc(=O)[nH]c(n1)c1ccccc1)C,291.2,0.163097384,0.2146,-7.8599,4.88426,327.6538012830435,0.159051253,-0.6274,-8.084,68.54411,-0.768,-8.645,5.03636,NaN,NaN,272.0,33113.112148259075,257.0,26302.679918953814,NaN
QUPJUOFMGWUZHC-UHFFFAOYSA-N,CCCCCCc1cc(sc1c1nc2c(s1)nc(s2)c1sccc1CCCCCC)c1ccc(cc1C(F)(F)F)C(F)(F)F,Cc1cc(sc1c1nc2c(s1)nc(s2)c1sccc1C)c1ccc(cc1C(F)(F)F)C(F)(F)F,357.1,1.526197951,-0.5428,-7.6424,2.78429,523.5819189421608,0.929508585,-1.3256,-6.9494,236.64686,-1.856,-8.67,3.94359,391.3889545086162,1.3576091381,473,NaN,473,NaN,NaN
GIVOOOGLXYCERS-UHFFFAOYSA-N,CCOC(=O)c1c(N)sc2c1c1ccccc1C2=Cc1ccc(cc1)Cl,CCOC(=O)c1c(N)sc2c1c1ccccc1C2=Cc1ccc(cc1)Cl,396.2,0.1463994,-0.2628,-7.2514,2.11654,433.0569277174421,0.100987648,-0.822,-7.3376,141.82753,-1.065,-8.246,3.08835,NaN,NaN,NaN,NaN,NaN,NaN,NaN
QXFBZIUAMCAESE-UHFFFAOYSA-N,OCc1c(nc2n1cccc2)c1ccc(cc1)F,OCc1c(nc2n1cccc2)c1ccc(cc1)F,295.2,0.110541553,0.5237,-7.9751,5.00668,363.0576820073314,0.270240303,-0.5254,-7.5971,93.70117,-0.867,-9.02,3.54976,NaN,NaN,320,NaN,320,NaN,NaN
YMAYRXGHCIAWQO-UHFFFAOYSA-N,CCCCC(COc1c(c2ccc(cc2)C#N)c(C#N)c(c(c1C#N)c1ccc(cc1)C#N)OC)CC,C(COc1c(c2ccc(cc2)C#N)c(C#N)c(c(c1C#N)c1ccc(cc1)C#N)OC)CC,283.3,0.646186957,-1.1875,-9.5644,0.34634,331.154376083076,0.22052242,-1.5,-9.0852,99.83148,-2.023,-10.179,0.31495,NaN,NaN,430.0,NaN,259.0,NaN,NaN
UEPVWRDHSPMIAZ-UHFFFAOYSA-N,COc1cc(C=CC(=CC(=O)C=Cc2ccc(cc2)O)O)ccc1O,COc1cc(C=CC(=CC(=O)C=Cc2ccc(cc2)O)O)ccc1O,342.5,2.267117272,-0.5332,-7.6393,4.51459,376.3940449468842,0.068328615,-1.1306,-8.1033,39.64897,-1.029,-8.827,1.01823,NaN,NaN,NaN,NaN,NaN,NaN,NaN
OWDDAQDLYHGKTQ-UHFFFAOYSA-N,CCCN1c2ccc(cc2Sc2c1cccc2)C=Cc1cc(=O)oc2c1cccc2,CCCN1c2ccc(cc2Sc2c1cccc2)C=Cc1cc(=O)oc2c1cccc2,345.5,0.518704133,-0.4354,-7.334,6.51806,338.3848209757196,0.568281209,-1.0836,-7.6819,158.20982,-1.188,-7.784,7.55533,NaN,NaN,424,NaN,424,NaN,chloroform
RISIDUUFZOKJAV-UHFFFAOYSA-N,CCCCn1c(c2ccccc2)c(nc1c1c2ccccc2c(c2c1cccc2)Br)c1ccccc1,Cn1c(c2ccccc2)c(nc1c1c2ccccc2c(c2c1cccc2)Br)c1ccccc1,373.8,0.320781054,-0.5477,-7.5108,3.94216,386.8461728720863,0.311285812,-1.0563,-7.2304,507.84755,-1.502,-8.468,4.86256,NaN,NaN,458.9,NaN,331.5,NaN,quartz
HCGVHZGSMKEALA-LSUSWQKBSA-N,OC[C@H]1O[C@H](C[C@@H]1OP(=O)(OC[C@H]1O[C@H](C[C@@H]1O)n1cnc2c1[nH]c(N)nc2=O)O)n1cnc2c1ncnc2N,OC[C@H]1O[C@H](C[C@@H]1OP(=O)(OC[C@H]1O[C@H](C[C@@H]1O)n1cnc2c1[nH]c(N)nc2=O)O)n1cnc2c1ncnc2N,247.8,0.001625808,0.7885,-8.2332,13.44099,324.22646026543845,0.001018901,-0.3446,-7.9563,145.97076,-0.912,-8.861,14.23235,NaN,NaN,NaN,NaN,NaN,NaN,NaN
IYRMWMYZSQPJKC-UHFFFAOYSA-N,Oc1ccc(cc1)c1oc2cc(O)cc(c2c(=O)c1O)O,Oc1ccc(cc1)c1oc2cc(O)cc(c2c(=O)c1O)O,311.2,0.585338085,-0.0455,-7.9204,4.31766,355.96956188775096,0.188957302,-1.2974,-8.3687,61.54040,-1.092,-8.899,1.16936,NaN,NaN,349,NaN,349,NaN,NaN
DCJKVAGTUMPRLW-UHFFFAOYSA-N,COc1ccc(cc1F)C1(COC2C(=C1)c1ccccc1C=C2)c1ccc(c(c1)F)OC,COc1ccc(cc1F)C1(COC2C(=C1)c1ccccc1C=C2)c1ccc(c(c1)F)OC,290.9,0.166839586,0.4514,-8.1019,2.05480,320.8700786891917,0.238492374,-0.283,-7.8011,181.52479,-0.536,-8.796,1.28506,NaN,NaN,465.0,NaN,443.0,NaN,NaN
SJEDDKJAIBWYNM-UHFFFAOYSA-N,O=C(C(=C)COc1ccc(cc1)C(=O)c1ccccc1)OC(C)(C)C,O=C(C(=C)COc1ccc(cc1)C(=O)c1ccccc1)OC(C)(C)C,301.6,0.003566825,0.2859,-8.6332,5.02809,362.7390240067398,0.001132277,-0.6431,-8.9328,47.06891,-0.567,-9.299,5.06436,NaN,NaN,289,NaN,289,NaN,NaN
SVIWTMWSRZJNGQ-UHFFFAOYSA-N,C#Cc1ccc(cc1)Sc1ccc(cc1)C#C,C#Cc1ccc(cc1)Sc1ccc(cc1)C#C,280.1,0.621427552,0.2875,-8.0615,0.89694,301.8115832655883,8.9333e-05,0.0222,-8.1787,59.09176,-0.813,-8.441,1.23069,NaN,NaN,249.75,NaN,249.75,NaN,NaN
ZDHRMFKGYIJZFT-UHFFFAOYSA-N,Brc1ccc(cc1)C1=C(C(=O)CC1)c1cc(sc1C)C,Brc1ccc(cc1)C1=C(C(=O)CC1)c1cc(sc1C)C,311.9,0.059048838,-0.0865,-8.0884,2.36361,366.3835650280841,0.041527932,-0.7984,-7.8071,314.80542,-0.892,-8.647,2.43208,NaN,NaN,280,NaN,280,NaN,NaN