inchikey,smi_pre,smi_post,lambda_sTDA (nm),f1_sTDA,lumo_dft,homo_dft,dmom_dft (D),lambda_z (nm),f1_z,lumo_z,homo_z,dmom_z (D),lumo_mopac,homo_mopac,dmom_mopac (D),lambda_tddft (nm),f1_tddft,lambda_exp_max (nm),epsilon_exp_max ,lambda_exp_min (nm),epsilon_exp_min ,solvent
JTXWJWAIUCMHAP-UHFFFAOYSA-N,c1ccc(cc1)c1ccc2c(c1)c(c1ccc(cc1)c1ccccc1)c1c(c2c2ccc(cc2)c2ccccc2)cccc1,c1ccc(cc1)c1ccc2c(c1)c(c1ccc(cc1)c1ccccc1)c1c(c2c2ccc(cc2)c2ccccc2)cccc1,376.8,0.360594029,-0.1812,-7.2905,0.03748,393.22612878370967,0.34857524,-0.6533,-7.0488,7.23005,-1.132,-8.225,0.0426,NaN,NaN,396,10870,396,10870,NaN
GLJSRYOJJRJELQ-UHFFFAOYSA-N,c1csc(c1)c1cnc(cn1)c1cccs1,c1csc(c1)c1cnc(cn1)c1cccs1,317.6,1.080946997,-0.2995,-7.9324,0.94716,406.77230447999887,0.898862009,-1.0589,-7.4829,76.16546,-1.487,-8.916,0.48691,332.34384015772116,0.8995059696,367,NaN,367,NaN,NaN
OHZAHWOAMVVGEL-UHFFFAOYSA-N,c1csc(c1)c1cccs1,c1csc(c1)c1cccs1,270.2,0.469369106,0.6534,-8.04,0.92790,361.4699661968037,0.502174593,-0.544,-7.5833,73.65623,-0.991,-8.895,0.60635,NaN,NaN,415,NaN,415,NaN,NaN
UUWURWJAOJNCHA-UHFFFAOYSA-N,CN1c2ccccc2C(C21C=Nc1c(O2)ccc2c1ccc(c2)C=Cc1cc2ccccc2c2c1OC(C=C2)(c1ccccc1)c1ccccc1)(C)C,CN1c2ccccc2C(C21C=Nc1c(O2)ccc2c1ccc(c2)C=Cc1cc2ccccc2c2c1OC(C=C2)(c1ccccc1)c1ccccc1)(C)C,337.5,0.340241791,-0.0941,-7.3059,1.10545,357.3031654337281,0.15473562,-0.3876,-7.3329,31.93820,-0.925,-8.352,1.91841,NaN,NaN,612.0,NaN,447.0,NaN,NaN
VCBRBUKGTWLJOB-UHFFFAOYSA-N,CC(=C)C(=O)Nc1ccc(c(c1)Cl)Cl,CC(=C)C(=O)Nc1ccc(c(c1)Cl)Cl,259.7,0.000902226,0.3987,-8.5473,5.86972,317.25741659545463,0.003474192,-0.5753,-9.0786,242.35992,-0.652,-9.167,5.05485,NaN,NaN,NaN,NaN,NaN,NaN,NaN
IBTJGRKHEJSSSF-UHFFFAOYSA-N,COc1ccccc1N=Nc1nc2c(s1)cc(cc2)[N+](=O)[O-],COc1ccccc1N=Nc1nc2c(s1)cc(cc2)[N+](=O)[O-],477.6,0.000372214,-1.511,-8.6064,5.72033,561.0144724230935,0.004625297,-2.4538,-8.9139,185.92468,-2.075,-9.4,5.99844,NaN,NaN,414.0,NaN,337.0,NaN,Methanol
XEXLGUJHVBJABA-UHFFFAOYSA-N,Cc1ccc(cc1)n1c(nc2c1c1ccccc1c1c2cccc1)c1ccc(cc1)F,Cc1ccc(cc1)n1c(nc2c1c1ccccc1c1c2cccc1)c1ccc(cc1)F,300.8,0.233468838,0.6158,-7.4163,4.48007,369.1104447916155,0.334633282,-0.3889,-7.1719,143.79739,-0.698,-8.353,5.17416,NaN,NaN,344.0,NaN,262.0,NaN,NaN
DJUWZELLSVEECO-UHFFFAOYSA-N,COc1ccc(cc1Oc1ccc(cc1)C(=O)OC)C(=O)OC,COc1ccc(cc1Oc1ccc(cc1)C(=O)OC)C(=O)OC,252.1,0.10529948,0.5555,-8.7386,1.08891,295.97564670686,0.043308584,-0.8932,-9.0922,17.64581,-0.762,-9.464,1.41705,NaN,NaN,254,NaN,254,NaN,NaN
RJGVGRYVHMASDY-GJZGRUSLSA-N,Clc1ccc(cc1)C(=O)[C@@H]1O[C@H]1c1ccc(cc1)Cl,Clc1ccc(cc1)C(=O)[C@@H]1O[C@H]1c1ccc(cc1)Cl,305.8,0.000231439,-0.2788,-9.0293,1.18006,359.68725966203556,7.3893e-05,-1.2004,-9.2799,47.84619,-1.159,-9.873,0.62621,NaN,NaN,322.0,NaN,214.0,NaN,NaN
JFEYZDVNLAIDPC-UHFFFAOYSA-N,COc1ccccc1C=CC=NN=Cc1ccc(cc1)[N+](=O)[O-],COc1ccccc1C=CC=NN=Cc1ccc(cc1)[N+](=O)[O-],349.3,0.003430915,-1.0539,-8.0363,7.99630,423.58796858730324,2.516e-06,-2.5049,-8.172,251.53659,-1.551,-8.951,8.85196,NaN,NaN,360,NaN,360,NaN,dioxane
WOJUMPJTBDKPPD-UHFFFAOYSA-N,Fc1c2oc3ccccc3oc2c2c(c1F)c(=O)c1c(c2=O)c(O)ccc1O,Fc1c2oc3ccccc3oc2c2c(c1F)c(=O)c1c(c2=O)c(O)ccc1O,396.6,0.513087344,-1.4305,-8.1793,3.79809,419.1487437643802,2.1029e-05,-2.3915,-8.892,133.60768,-2.14,-9.083,3.64512,NaN,NaN,1315.7894736842106,NaN,423.0,NaN,NaN
VCXBXUOELYSTRE-UHFFFAOYSA-N,N#CC(=Cc1ccc(cc1)N(c1ccccc1)c1ccccc1)c1ccc(cc1)Br,N#CC(=Cc1ccc(cc1)N(c1ccccc1)c1ccccc1)c1ccc(cc1)Br,338.9,0.917809258,-0.3396,-7.4867,6.53821,348.0746726712624,0.348410466,-0.5752,-7.4615,412.18794,-0.953,-8.166,4.47565,NaN,NaN,409.0,NaN,304.0,NaN,Cyclohexane
HTFLWECRIBKJJD-UHFFFAOYSA-N,COc1ccc(cc1)c1nnc(o1)c1ccn2c(c1c1ccccc1)nc1c2cccc1,COc1ccc(cc1)c1nnc(o1)c1ccn2c(c1c1ccccc1)nc1c2cccc1,345.1,0.414205899,-0.4173,-7.7682,2.62443,418.72407431781045,0.505060744,-1.2589,-7.5388,89.12644,-1.437,-8.631,2.2626,NaN,NaN,343,NaN,343,NaN,NaN
LUPYPKDXTBKCEA-UHFFFAOYSA-N,COC1OC(=O)C(=C1NCc1ccccc1Cl)Br,COC1OC(=O)C(=C1NCc1ccccc1Cl)Br,236.3,0.135489268,0.8887,-8.3859,7.51811,316.0443497463769,0.000347888,-0.6783,-9.1468,290.19223,-0.817,-8.963,8.43298,NaN,NaN,274,NaN,274,NaN,NaN
RVPSSDIWJSSUDD-UHFFFAOYSA-N,N#Cc1ccc(cc1)Oc1ccc2c3c1cccc3c(=O)n(c2=O)CCOC(=O)C,N#Cc1ccc(cc1)Oc1ccc2c3c1cccc3c(=O)n(c2=O)CCOC(=O)C,325.5,0.430823992,-0.8377,-8.5953,2.48953,342.971503196414,0.423117081,-1.5375,-8.546,67.89202,-1.71,-9.467,3.53304,NaN,NaN,NaN,NaN,NaN,NaN,NaN
MXSPERGDPDHEGO-UHFFFAOYSA-N,Fc1c(F)c2nc3c(nc2c(c1C(F)(F)F)F)c(F)c(c(c3F)C(F)(F)F)F,Fc1c(F)c2nc3c(nc2c(c1C(F)(F)F)F)c(F)c(c(c3F)C(F)(F)F)F,389.2,0.087705719,-2.2314,-9.2788,0.27081,392.35505824526473,0.167079484,-3.3454,-9.8423,0.80024,-3.396,-10.504,0.15896,NaN,NaN,414,NaN,414,NaN,NaN
CKNGJQPJRFYFOR-UHFFFAOYSA-N,CCCOc1ccc(cc1)C1CC(=NN1c1ccc(c(c1)C)C)c1ccc(cc1)Cl,CCCOc1ccc(cc1)C1CC(=NN1c1ccc(c(c1)C)C)c1ccc(cc1)Cl,326.6,1.061901415,0.4687,-6.972,3.50123,341.7425534881578,0.487783414,-0.6549,-7.6322,356.19968,-0.724,-8.074,3.10873,343.1613424003306,0.7406716175,408,NaN,408,NaN,NaN
FXIZPOLFFOIUTG-UHFFFAOYSA-N,CCCCN(c1ccc(cc1)C=Cc1ccc(cc1)C=Cc1ccccc1)CCCC,CN(c1ccc(cc1)C=Cc1ccc(cc1)C=Cc1ccccc1)C,354.0,2.264871577,-0.0081,-6.8389,3.53175,328.8705527997445,1.251183695,-0.1669,-7.3666,13.46855,-0.535,-8.013,2.91859,364.23088428096196,2.1198830847,416,NaN,416,NaN,Benzene
VDGCPQNIIQXEPO-UHFFFAOYSA-N,Oc1ccc(c2c1nccc2)N=Nc1nccs1,Oc1ccc(c2c1nccc2)N=Nc1nccs1,452.3,0.000408845,-0.9557,-7.9673,2.84360,548.6026478119632,0.023692831,-1.5763,-8.1933,78.82013,-1.724,-8.939,2.04886,NaN,NaN,443.0,NaN,428.0,NaN,DMSO
YBGKGTOOPNQOKH-UHFFFAOYSA-N,O=c1cc(O)c2c(o1)c(O)ccc2,O=c1cc(O)c2c(o1)c(O)ccc2,276.7,0.028790152,0.043,-8.8946,5.25372,319.46456687839134,0.139174336,-1.2591,-9.0849,61.66488,-1.248,-9.302,4.03817,NaN,NaN,215,NaN,215,NaN,NaN
BKEPMEHQAKHIRR-UHFFFAOYSA-N,Fc1cccc(c1)Nc1nc2c(n1CCCn1cncc1)cc1c(c2)c(C)c(c(=O)o1)C(=O)N,Fc1cccc(c1)Nc1nc2c(n1CCCn1cncc1)cc1c(c2)c(C)c(c(=O)o1)C(=O)N,310.1,0.556686002,-0.2718,-7.8664,6.56081,370.32317325419257,0.388593415,-1.3934,-8.2609,137.38061,-1.473,-8.677,8.23893,NaN,NaN,365,NaN,365,NaN,ethanol
QGNVAGKIYRNCJM-UHFFFAOYSA-N,CCCCCCCCC1(CCCCCCCC)c2cc3nc([nH]c3cc2c2c1cc1nc([nH]c1c2)C=Cc1ccccc1)C=Cc1ccccc1,C1(C)c2cc3nc([nH]c3cc2c2c1cc1nc([nH]c1c2)C=Cc1ccccc1)C=Cc1ccccc1,360.5,3.038774085,-0.2206,-6.9689,5.65826,409.5943125388294,1.85141669,-0.6586,-6.798,11.49772,-1.037,-8.239,6.02099,369.15438876091065,2.7864305152,426.0,NaN,396.0,NaN,NaN
PYAGONOHANWCES-UHFFFAOYSA-N,c1nc(cc(n1)c1cccs1)c1cccs1,c1nc(cc(n1)c1cccs1)c1cccs1,280.6,0.854800317,-0.229,-8.6041,2.52287,358.85440927786874,0.756300235,-1.0083,-8.0564,33.78080,-1.284,-9.086,2.47401,294.4782866048487,0.7197322508,327.0,NaN,280.0,NaN,NaN
FBZWWDMWRJQZNG-UHFFFAOYSA-N,Cc1cc(ccc1c1ccc(cc1)c1[nH]c2c(n1)cccc2)c1ccc(cc1)c1[nH]c2c(n1)cccc2,Cc1cc(ccc1c1ccc(cc1)c1[nH]c2c(n1)cccc2)c1ccc(cc1)c1[nH]c2c(n1)cccc2,296.5,2.554690892,0.0502,-7.854,2.62255,350.0400858427546,1.370374939,-0.5923,-7.6397,14.70235,-0.919,-8.817,1.56851,305.379785737043,2.7643090232,330,NaN,330,NaN,NaN
ATOYSNPMELKUBW-UHFFFAOYSA-N,CCCC(=O)OCc1ccccc1[N+](=O)[O-],C(=O)OCc1ccccc1[N+](=O)[O-],317.2,0.015195395,-0.3876,-9.9908,3.22240,440.1284998420435,0.025589892,-2.4428,-9.7648,77.37635,-1.375,-10.453,6.12425,NaN,NaN,260.0,NaN,256.0,NaN,Acetonitrile
YJNADXSIELMNFM-UHFFFAOYSA-N,Cc1cc(c(s1)C)C1=C(CCC1=O)c1cc(sc1C)C,Cc1cc(c(s1)C)C1=C(CCC1=O)c1cc(sc1C)C,300.6,0.018406003,0.4145,-7.9213,3.83828,359.5829420113215,0.031643009,-0.4941,-7.6197,74.67008,-0.532,-8.437,4.0347,NaN,NaN,309.0,NaN,208.0,NaN,NaN
IHEXGQDVVHNJTB-UHFFFAOYSA-N,COC(=O)c1c(=O)oc2c1cc1[n-]c(n[n+](c1c2)c1ccccc1)c1ccccc1,COC(=O)c1c(=O)oc2c1cc1[n-]c(n[n+](c1c2)c1ccccc1)c1ccccc1,528.7,0.279390785,-1.7592,-7.6566,11.35263,643.4052849273672,0.281923794,-2.7963,-7.8082,222.42965,-2.405,-8.575,10.28306,NaN,NaN,629,NaN,629,NaN,NaN
NGQSLSMAEVWNPU-UHFFFAOYSA-N,c1ccc(c(c1)C=Cc1ccccc1)C=Cc1ccccc1,c1ccc(c(c1)C=Cc1ccccc1)C=Cc1ccccc1,311.6,0.912294565,0.044,-7.7611,0.27689,307.8822905525296,0.680068007,-0.176,-7.7482,5.36159,-0.531,-8.903,0.04383,319.3329032329868,0.838099078,368,NaN,368,NaN,Benzene
MCJGNVYPOGVAJF-UHFFFAOYSA-N,Oc1cccc2c1nccc2,Oc1cccc2c1nccc2,307.5,0.055843169,0.2546,-8.1014,2.65261,314.8405241378965,0.026731938,-0.5435,-8.2083,43.52521,-0.864,-8.902,2.70182,NaN,NaN,495.0,NaN,385.0,NaN,NaN
SBZSQUHYPQKTJV-UHFFFAOYSA-N,c1ccc(cc1)C1=CC(=CC=Cc2cnccn2)C=C(O1)c1ccccc1,c1ccc(cc1)C1=CC(=CC=Cc2cnccn2)C=C(O1)c1ccccc1,369.9,1.93318123,-0.3453,-6.8802,4.32705,425.04010423552853,1.317873823,-0.9395,-6.9385,81.80662,-1.137,-8.022,5.46478,403.0826522619053,1.4816871253,440.0,NaN,252.0,NaN,dichloromethane
HLGJKPJMZKHFDC-UHFFFAOYSA-N,C=CC(c1ccc(cc1)O)C,C=CC(c1ccc(cc1)O)C,244.5,0.043487868,1.7046,-8.2969,1.45453,284.62855464991657,0.037174997,0.5899,-8.3478,67.07949,0.078,-8.995,1.56277,NaN,NaN,223.0,NaN,222.0,NaN,NaN
KBKCTOSOOWJJRG-UHFFFAOYSA-N,O=Cc1cc(N=Nc2cccc(c2)C)ccc1O,O=Cc1cc(N=Nc2cccc(c2)C)ccc1O,430.7,2.2992e-05,-0.5666,-8.3317,3.12225,529.6206681140694,2.1942e-05,-1.47,-8.3703,160.03254,-1.306,-9.122,3.28798,NaN,NaN,336,NaN,336,NaN,NaN
SJWWVFXVERRPKK-UHFFFAOYSA-N,O=c1ccc2c(o1)ccc(c2)N=Cc1ccc(o1)c1ccc(cc1)[N+](=O)[O-],O=c1ccc2c(o1)ccc(c2)N=Cc1ccc(o1)c1ccc(cc1)[N+](=O)[O-],343.9,1.769051916,-1.1152,-8.2001,4.36335,433.0569277174421,0.647187867,-2.6859,-8.3457,98.87185,-1.908,-9.238,3.34312,359.54121624300967,1.4826951198,385,30000.0,385,30000.0,NaN
KATXCYUQSYOTBQ-UHFFFAOYSA-N,Cn1c(nc2c1c1ccccc1c1c2cccc1)c1ccccn1,Cn1c(nc2c1c1ccccc1c1c2cccc1)c1ccccn1,305.3,0.476885227,0.2882,-7.4538,2.38932,398.4068072156287,0.610427151,-0.6398,-7.0705,44.50916,-0.877,-8.342,2.80449,NaN,NaN,345,12570,345,12570,NaN
ICXVZRLNPZDWEM-UHFFFAOYSA-N,Oc1c(cc(cc1C(C)(C)C)C(C)(C)C)c1nc2c(o1)c1ccccc1c1c2cccc1,Oc1c(cc(cc1C(C)(C)C)C(C)(C)C)c1nc2c(o1)c1ccccc1c1c2cccc1,310.5,0.518371916,0.2331,-7.6229,2.16906,404.2523586746125,0.499516317,-0.7736,-7.2423,135.58132,-0.982,-8.411,2.05229,NaN,NaN,365.0,NaN,344.0,NaN,NaN
UQNYUDUILQTVNU-UHFFFAOYSA-N,N#Cc1ccc(cc1)N(c1ccc2c(c1)c1ccccc1n2CC)c1ccc(cc1)C#N,N#Cc1ccc(cc1)N(c1ccc2c(c1)c1ccccc1n2CC)c1ccc(cc1)C#N,306.4,0.302515693,-0.0342,-7.705,8.48125,345.45611146699264,0.36888321,-0.622,-7.5937,133.07993,-1.127,-8.274,7.96708,NaN,NaN,480.0,NaN,392.0,NaN,NaN
OWGNPUJWHVDTGC-UHFFFAOYSA-N,CCC(C(=Cc1ccccc1)C)O,CCC(C(=Cc1ccccc1)C)O,241.5,0.097209303,1.405,-8.4681,1.64434,274.1193862602336,0.010762364,0.6807,-8.3465,32.28264,0.198,-9.512,1.11628,NaN,NaN,NaN,NaN,NaN,NaN,NaN
YUEXZWYOVSYEIP-UHFFFAOYSA-N,CCCCCCCCCCCCOc1ccc(cc1)C=Cc1nc(C#N)c(nc1C=Cc1ccc(cc1)C=O)C#N,COc1ccc(cc1)C=Cc1nc(C#N)c(nc1C=Cc1ccc(cc1)C=O)C#N,357.1,1.240221261,-1.4911,-8.1888,7.38713,386.48440899471217,0.588256975,-1.5803,-8.1358,112.18811,-2.216,-9.098,6.31059,378.1735336563655,0.5815302205,413,NaN,413,NaN,NaN
YJTUBUCNEVXTQO-UHFFFAOYSA-N,O=c1[nH]c2nc3c(n2c(c1N=Nc1ccccc1)N)cccc3,O=c1[nH]c2nc3c(n2c(c1N=Nc1ccccc1)N)cccc3,402.8,5.5669e-05,-0.439,-8.0912,5.44712,522.6989814734555,0.001159601,-1.4161,-8.0884,82.60786,-1.349,-8.912,6.41426,NaN,NaN,418.0,NaN,390.0,NaN,Chloroform
YPCOYSWYWUVZGP-UHFFFAOYSA-N,OC(=O)CN1C(=S)SC(=Cc2noc(c2)c2ccc(s2)c2ccc(s2)c2ccc(cc2)N(c2ccccc2)c2ccccc2)C1=O,OC(=O)CN1C(=S)SC(=Cc2noc(c2)c2ccc(s2)c2ccc(s2)c2ccc(cc2)N(c2ccccc2)c2ccccc2)C1=O,369.8,2.034083466,-1.0344,-7.2417,7.18332,469.6371151723623,0.00033182,-1.8695,-7.3695,1153.81597,-1.828,-8.161,9.55319,391.31483717093624,1.793751941,414.0,NaN,402.0,NaN,NaN
HADPFAVAXJJLHH-UHFFFAOYSA-N,COc1ccc(cc1)c1ccc(nc1)c1ccc2c(n1)cccc2,COc1ccc(cc1)c1ccc(nc1)c1ccc2c(n1)cccc2,297.1,0.7413103,-0.0513,-7.9357,1.93129,336.1827505572225,0.676437625,-0.6987,-7.9286,36.54963,-1.084,-8.819,1.79977,NaN,NaN,367.0,NaN,318.0,NaN,NaN
NRNMJBKBDMSYLI-UHFFFAOYSA-N,c1ccc(cc1)c1nc2c(n1c1ccccc1)c1ccccc1c1c2cccc1,c1ccc(cc1)c1nc2c(n1c1ccccc1)c1ccccc1c1c2cccc1,300.4,0.226053404,0.6041,-7.4156,4.01354,364.44502764698314,0.26943793,-0.1935,-7.1012,24.37155,-0.666,-8.298,4.50344,NaN,NaN,370,NaN,370,NaN,NaN
SREOSMCTYZGWKH-UHFFFAOYSA-N,COc1c(OC)cc(cc1OC)c1nc2CCc3c(c2c2c1c1ccc(cc1CC2)Br)ccc(c3)Br,COc1c(OC)cc(cc1OC)c1nc2CCc3c(c2c2c1c1ccc(cc1CC2)Br)ccc(c3)Br,297.4,0.434744739,0.1087,-7.7821,1.59960,336.27393112423016,0.37810713,-0.5337,-7.7586,360.17166,-1.006,-8.339,1.74695,NaN,NaN,374.0,99900.0,280.0,25000.0,chloroform
GWZLMUNEDVTESN-UHFFFAOYSA-N,COc1ccc(c2c1[nH]c(n2)C)OC,COc1ccc(c2c1[nH]c(n2)C)OC,256.7,0.077354275,2.0273,-7.1987,3.67260,310.581659332424,0.00617903,0.24,-7.8746,14.59278,0.045,-7.969,3.89465,NaN,NaN,100,NaN,100,NaN,NaN
KZRZAAXSMNRRHD-UHFFFAOYSA-N,CCOC(=O)c1cc(=O)c2c(o1)ccc(c2)OC,CCOC(=O)c1cc(=O)c2c(o1)ccc(c2)OC,303.4,5.49e-07,-0.2933,-8.4901,4.38228,384.32795537973857,1.209e-06,-1.6935,-9.0321,39.75983,-1.161,-9.066,3.63128,NaN,NaN,343.0,NaN,206.0,NaN,NaN
KJMXHLGZQRXQSY-UHFFFAOYSA-N,COC(=O)c1ccc2c(c1)c(c1cc(sc1C)C)c(c1c2ccc(c1)C(=O)OC)c1cc(sc1C)C,COC(=O)c1ccc2c(c1)c(c1cc(sc1C)C)c(c1c2ccc(c1)C(=O)OC)c1cc(sc1C)C,315.0,0.053937677,-0.2543,-7.9345,4.20374,375.2548377890547,0.094551571,-1.2293,-7.7836,46.21720,-1.216,-8.81,4.07165,NaN,NaN,388.2,NaN,388.2,NaN,NaN
LBMAEBPZXXNKMZ-VIFPVBQESA-N,ONC(=O)[C@H](Cc1c[nH]c2c1cccc2)N,ONC(=O)[C@H](Cc1c[nH]c2c1cccc2)N,266.5,0.07679172,1.1902,-8.0501,2.53526,303.2139848508282,0.007618737,0.0436,-7.9745,105.23328,-0.343,-8.749,4.75934,NaN,NaN,533.0,NaN,493.0,NaN,NaN
LAUYAFWVKCRXEI-UHFFFAOYSA-N,COc1ccc(cc1)N(c1c2ccccc2c(c2c1cccc2)C=O)c1ccc(cc1)OC,COc1ccc(cc1)N(c1c2ccccc2c(c2c1cccc2)C=O)c1ccc(cc1)OC,430.1,0.266001489,-0.8343,-7.047,2.89654,424.4580568486945,0.274128462,-1.1139,-7.2579,19.19659,-1.39,-7.801,2.17067,NaN,NaN,401,NaN,401,NaN,NaN
NQTZGFFZPKAXFO-UHFFFAOYSA-N,[O-][N+](=O)c1ccc(cc1)C=Cc1ccc(cc1)c1nnc(o1)c1c2ccccc2cc2c1cccc2,[O-][N+](=O)c1ccc(cc1)C=Cc1ccc(cc1)c1nnc(o1)c1c2ccccc2cc2c1cccc2,374.8,0.626163603,-1.0476,-7.7488,5.43230,422.00203677843314,0.010203439,-2.4828,-7.5095,273.51004,-1.694,-8.73,6.25587,NaN,NaN,368,NaN,368,NaN,NaN
ZNZYKNKBJPZETN-AXHNFQJDSA-N,C=C[C@H]([C@@H](C(=CO)C(=O)OC)C[C@@H]1NCCc2c1[nH]c1c2cccc1)C=O,C=C[C@H]([C@@H](C(=CO)C(=O)OC)C[C@@H]1NCCc2c1[nH]c1c2cccc1)C=O,272.8,0.008664885,0.7391,-7.4273,4.80649,339.6827353575443,0.002099466,-0.8713,-7.3212,86.23139,-0.007,-8.334,1.74747,NaN,NaN,NaN,NaN,NaN,NaN,NaN
WAZKKNYYOPANQB-UHFFFAOYSA-N,N#Cc1c(C)c(N=Nc2nc3c(s2)cccc3)c(n(c1=O)CC)O,N#Cc1c(C)c(N=Nc2nc3c(s2)cccc3)c(n(c1=O)CC)O,383.2,0.010645865,-1.4341,-8.3331,7.91217,522.6989814734555,0.025107627,-2.1239,-8.4707,37.74243,-1.694,-9.298,7.9948,NaN,NaN,440,41600,440,41600,NaN
INVJDGPRDISILY-UHFFFAOYSA-N,CCCCCc1ccc(cc1)Nc1nc(C#N)c(nc1CC(=O)C1=Nc2c(N(C1C)c1ccc(cc1)CCCCC)cc(n2C#N)C#N)C#N,Cc1ccc(cc1)Nc1nc(C#N)c(nc1CC(=O)C1=Nc2c(N(C1C)c1ccc(cc1)C)cc(n2C#N)C#N)C#N,404.9,0.173223871,-1.4277,-8.2318,11.32798,431.8502208481493,0.165517161,-1.8029,-7.8931,198.59141,-2.082,-8.801,11.91563,NaN,NaN,335,NaN,335,NaN,NaN
YIAMSCMRVSHEBF-IPMKNSEASA-N,OC[C@H]1O[C@H](C[C@@H]1O)n1cc(c(=O)[nH]c1=O)c1c(C#C)ccc2c1C(=O)c1c2cccc1,OC[C@H]1O[C@H](C[C@@H]1O)n1cc(c(=O)[nH]c1=O)c1c(C#C)ccc2c1C(=O)c1c2cccc1,384.8,0.035584084,-1.1731,-8.5074,6.15649,431.8502208481493,0.057646946,-1.6646,-8.2065,160.29850,-1.586,-9.171,4.4195,NaN,NaN,345.0,NaN,341.0,NaN,Water
ZDMHHSXWFLOPEF-UHFFFAOYSA-N,Cc1ccc(c(c1)C)N=C(C(F)(F)F)n1c(=S)sc2c1cccc2,Cc1ccc(c(c1)C)N=C(C(F)(F)F)n1c(=S)sc2c1cccc2,310.5,0.045077226,0.0771,-8.2212,4.73244,449.05540892974886,8.7847e-05,-0.8837,-8.3294,286.85371,-1.283,-8.525,4.48212,NaN,NaN,NaN,NaN,NaN,NaN,NaN
UILYJSGUMNDHGE-UHFFFAOYSA-N,CC(C=Cc1c2ccccc2cc2c1cccc2)(C=Cc1c2ccccc2cc2c1cccc2)C,CC(C=Cc1c2ccccc2cc2c1cccc2)(C=Cc1c2ccccc2cc2c1cccc2)C,365.1,0.306424256,-0.1594,-7.291,0.61530,381.48984124770357,0.245141982,-0.6632,-7.1014,37.55223,-1.028,-8.212,0.8736,NaN,NaN,377.0,NaN,372.0,NaN,chloroform
SMWDFEZZVXVKRB-UHFFFAOYSA-N,c1ccc2c(c1)nccc2,c1ccc2c(c1)nccc2,277.4,0.044421298,0.2897,-8.7077,2.07586,308.64873887354656,0.082920963,-0.45,-8.481,17.91696,-0.828,-9.443,2.3151,NaN,NaN,1000,NaN,1000,NaN,NaN
GUHNFORKGGRMIF-UHFFFAOYSA-N,Nc1ncc2c(n1)c1c(CCC2)cc(n1C)C(=O)N,Nc1ncc2c(n1)c1c(CCC2)cc(n1C)C(=O)N,278.6,0.440617618,0.5566,-8.0099,3.03529,365.30406130083577,0.50500559,-0.7526,-7.8726,73.72895,-0.587,-8.781,2.72288,NaN,NaN,NaN,NaN,NaN,NaN,NaN
NVLSIZITFJRWPY-UHFFFAOYSA-N,CN(c1ccc(cc1)C=Cc1ccc(cc1)[N+](=O)[O-])C,CN(c1ccc(cc1)C=Cc1ccc(cc1)[N+](=O)[O-])C,337.5,1.466311782,-0.5714,-7.3217,9.43804,422.43338468655423,0.018723535,-2.3605,-7.9231,254.69184,-1.281,-8.321,9.04871,367.1864982800434,1.2994956548,432,NaN,432,NaN,NaN
DIGGDIJKCYKVNE-UHFFFAOYSA-N,O=C(c1nccnc1C)C=Cc1ccc(cc1)N(C)C,O=C(c1nccnc1C)C=Cc1ccc(cc1)N(C)C,353.4,0.002039446,-0.3016,-7.3841,5.85537,398.4068072156287,0.006098524,-1.1456,-7.9178,119.68059,-1.062,-8.245,5.3503,NaN,NaN,310,NaN,310,NaN,ethanol
UDDNVNONWRTNRX-UHFFFAOYSA-N,COc1cccc(c1O)C=Nc1scc(n1)c1cc2ccccc2oc1=O,COc1cccc(c1O)C=Nc1scc(n1)c1cc2ccccc2oc1=O,331.6,0.900220545,-0.3188,-7.8115,8.20865,NaN,NaN,NaN,Nan,NaN,-1.36,-8.583,7.54052,345.59090480889574,0.7553242741,399.0,NaN,322.0,NaN,NaN
GZHVCIZZXJALNX-UHFFFAOYSA-N,O=C1C(N=Nc2scc(n2)c2cc3ccccc3oc2=O)C(=O)N(C(=O)N1C)C,O=C1C(N=Nc2scc(n2)c2cc3ccccc3oc2=O)C(=O)N(C(=O)N1C)C,398.5,0.000216362,-1.0115,-8.5285,4.24869,511.27504497114916,0.019342964,-2.3341,-8.1386,196.79225,-1.894,-9.098,2.99989,NaN,NaN,417.0,35481.33892335753,411.0,15488.166189124828,DMSO
PZGWQDLADYMRDU-UHFFFAOYSA-N,O=c1[nH]c(nc(c1)N(c1ccccc1)C(C)C)c1ccccc1,O=c1[nH]c(nc(c1)N(c1ccccc1)C(C)C)c1ccccc1,287.2,0.19710897,0.2749,-7.8764,4.69955,326.79019084212877,0.172286805,-0.5895,-8.0401,91.40276,-0.703,-8.665,4.97697,NaN,NaN,274.0,53703.17963702533,253.0,26302.679918953814,NaN
PTWYQANXSNMUTI-UHFFFAOYSA-N,Brc1cc(Br)c2c(c1)C(=O)C(=C1Nc3c(C1=O)cc(cc3Br)Br)N2,Brc1cc(Br)c2c(c1)C(=O)C(=C1Nc3c(C1=O)cc(cc3Br)Br)N2,457.7,0.515499073,-1.766,-7.9426,0.00046,429.01106714707146,0.384686664,-2.2342,-8.6322,0.06885,-2.205,-8.619,0.00324,NaN,NaN,533.4,NaN,363.6,NaN,NaN
JYCVBFQNHWXJKH-UHFFFAOYSA-N,CCOC(=O)C1=C(NC(=O)C1=NNc1ccc(cc1O)[N+](=O)[O-])c1ccc2c(c1)cccc2,CCOC(=O)C1=C(NC(=O)C1=NNc1ccc(cc1O)[N+](=O)[O-])c1ccc2c(c1)cccc2,373.4,1.347436445,-1.0005,-7.6999,15.44183,441.53916811076806,0.746295899,-2.2015,-8.2219,379.70492,-1.81,-8.588,14.36386,412.3597066858664,1.020980647,639.0,NaN,473.0,NaN,THF
JOPMEASJPULKOS-UHFFFAOYSA-N,CCOC(=O)OCC(=O)c1ccc2c3c1ccc1c3c(cc2)ccc1,CCOC(=O)OCC(=O)c1ccc2c3c1ccc1c3c(cc2)ccc1,336.6,0.316459009,-0.3432,-7.7201,2.47256,360.2097571339444,0.001262161,-0.8061,-7.4385,145.01165,-1.365,-8.566,2.10817,NaN,NaN,254,NaN,254,NaN,NaN
CEKHDOBOURMOMX-UHFFFAOYSA-N,COc1ccc(cc1)c1ccc(cc1)c1cc(nc(c1)c1ccccn1)c1ccccn1,COc1ccc(cc1)c1ccc(cc1)c1cc(nc(c1)c1ccccn1)c1ccccn1,272.1,1.33918906,0.2319,-7.8952,1.27686,322.53953799558707,0.464463851,-0.4333,-7.9874,16.04129,-0.917,-8.753,1.64157,280.1586103473945,0.233865287,298,51400.0,298,51400.0,CH 2 Cl
VVECHEOVFXPGMO-UHFFFAOYSA-N,CCCCCCCCOc1ccc(cc1)c1nc2c(sc(c2nc1c1ccc(cc1)OCCCCCCCC)c1ccc(s1)C#C)c1ccc(s1)C#C,COc1ccc(cc1)c1nc2c(sc(c2nc1c1ccc(cc1)OC)c1ccc(s1)C#C)c1ccc(s1)C#C,488.6,0.704289771,-1.1914,-6.9829,6.56935,666.2235271655221,0.563657624,-1.7709,-6.5148,335.25011,-2.006,-8.17,4.59391,NaN,NaN,373,NaN,373,NaN,NaN
NBLCVFATICLGPK-UHFFFAOYSA-N,COc1cc2c(cc1OC)Cc1c2cc2cc3ccccc3nc2n1,COc1cc2c(cc1OC)Cc1c2cc2cc3ccccc3nc2n1,345.3,0.311396269,-0.6506,-7.7561,5.05687,376.05155718988067,0.709740651,-1.132,-7.6643,66.25772,-1.482,-8.363,6.46201,NaN,NaN,386.0,NaN,370.0,NaN,acetone
KGPQGNLUVRRSRX-UHFFFAOYSA-N,CCc1ccc2c(c1)C(=C(N(S2(=O)=O)C)c1ccccc1)I,CCc1ccc2c(c1)C(=C(N(S2(=O)=O)C)c1ccccc1)I,294.1,0.267495017,0.1737,-8.1743,4.04956,NaN,NaN,NaN,Nan,NaN,-0.696,-8.226,3.12634,NaN,NaN,NaN,NaN,NaN,NaN,NaN
PCLKSIWENRGUGK-JQWIXIFHSA-N,O=C[C@@H]([C@@H](c1ccc(cc1)C)C[N+](=O)[O-])C,O=C[C@@H]([C@@H](c1ccc(cc1)C)C[N+](=O)[O-])C,298.9,0.000209752,0.4121,-9.11,3.97853,417.0339670551755,0.000132926,-2.4991,-8.7118,133.93237,-0.079,-9.557,4.14287,NaN,NaN,NaN,NaN,NaN,NaN,NaN
VCMBZPZZTRIQAY-UHFFFAOYSA-N,O=C(N=c1nc2n(c3c1cccc3)cnc1c2cccc1)Nc1ccccc1,O=C(N=c1nc2n(c3c1cccc3)cnc1c2cccc1)Nc1ccccc1,302.9,0.200637397,-0.3766,-7.9037,5.94274,330.4482899933467,0.169242139,-0.9771,-8.0652,45.17811,-1.392,-8.57,6.2195,NaN,NaN,390.0,NaN,313.0,NaN,Cl