inchikey,smi_pre,smi_post,lambda_sTDA (nm),f1_sTDA,lumo_dft,homo_dft,dmom_dft (D),lambda_z (nm),f1_z,lumo_z,homo_z,dmom_z (D),lumo_mopac,homo_mopac,dmom_mopac (D),lambda_tddft (nm),f1_tddft,lambda_exp_max (nm),epsilon_exp_max ,lambda_exp_min (nm),epsilon_exp_min ,solvent
ZMLRRAGIDSAIAO-UHFFFAOYSA-N,CN1c2c3ccccc3ccc2C(C21C=Cc1c(O2)ccc2c1c(c1ccccc1)c(o2)c1ccccc1)(C)C,CN1c2c3ccccc3ccc2C(C21C=Cc1c(O2)ccc2c1c(c1ccccc1)c(o2)c1ccccc1)(C)C,319.0,0.269396856,0.2471,-7.0742,2.92889,362.632928942684,0.838721565,-0.5093,-7.3057,67.84412,-0.966,-7.954,2.50131,NaN,NaN,249,55400,249,55400,NaN
ORQZPBBBVJUEDZ-INIZCTEOSA-N,COC(=O)[C@H](Cc1c([nH]c2c1cccc2)c1ccccc1)NC(=O)C(F)(F)F,COC(=O)[C@H](Cc1c([nH]c2c1cccc2)c1ccccc1)NC(=O)C(F)(F)F,270.7,0.323355485,0.5729,-8.0342,5.81135,323.71853369583204,0.476586912,-0.6008,-7.7015,265.25382,-0.701,-8.76,5.79497,NaN,NaN,288,NaN,288,NaN,NaN
MOGGGYCTIKWTTA-UHFFFAOYSA-N,N#CC(=Cc1ccc(cc1)C=C(c1ccccc1)c1ccccc1)c1ccccc1,N#CC(=Cc1ccc(cc1)C=C(c1ccccc1)c1ccccc1)c1ccccc1,330.0,1.110063428,-0.4581,-7.9262,5.71894,321.28582121146326,0.451603936,-0.409,-7.7701,95.57481,-0.799,-9.096,4.74711,NaN,NaN,366,NaN,366,NaN,NaN
XUJFNCKOASSEEU-UHFFFAOYSA-N,CCOC(=O)c1c(N)sc2c1c1ccccc1C2,CCOC(=O)c1c(N)sc2c1c1ccccc1C2,281.1,0.048421529,1.2874,-7.3435,0.82187,378.2312336958623,0.058343429,-0.3811,-7.4431,134.84521,-0.56,-8.175,1.16095,NaN,NaN,330,NaN,330,NaN,acetone
OHAOZJBBOUNZKA-UHFFFAOYSA-N,CN(c1ccc(cc1)C1=CC(=O)NC1=O)C,CN(c1ccc(cc1)C1=CC(=O)NC1=O)C,345.4,0.426999208,-0.561,-7.6288,6.08794,389.15316511457524,0.423606216,-1.7479,-8.1941,149.96874,-1.39,-8.448,6.43353,NaN,NaN,534.0,NaN,344.0,NaN,ethanol
KYVYYCXTUMHDOW-UHFFFAOYSA-N,O=C1OC(C)(C)OC(=O)C1=CC=CC=C1C=C(OC(=C1)c1ccccc1)c1ccccc1,O=C1OC(C)(C)OC(=O)C1=CC=CC=C1C=C(OC(=C1)c1ccccc1)c1ccccc1,395.0,2.576918752,-1.0887,-7.2233,8.91936,479.44392268176205,1.455386251,-1.7342,-7.3657,231.75707,-1.622,-8.341,9.32684,447.41868936248943,1.9337994797,576,NaN,576,NaN,dichloromethane
FXJNQEGEZZVIRV-UHFFFAOYSA-N,CCCCCCCC(=O)c1ccc(s1)c1sc(c(c1C#N)C#N)c1sc(c(c1C#N)C#N)c1ccc(s1)C(=O)CCCCCCC,C(=O)c1ccc(s1)c1sc(c(c1C#N)C#N)c1sc(c(c1C#N)C#N)c1ccc(s1)C(=O)C,379.4,1.450556462,-2.0943,-8.8074,2.45990,465.9308470706639,0.870714698,-2.4633,-8.4258,97.09025,-2.678,-9.794,4.69602,423.9935469846093,1.1898963922,421,NaN,421,NaN,NaN
GYSNMJJUCPUZQE-UHFFFAOYSA-N,COC1OC(=O)C(=C1Nc1ccc(cc1)Br)Br,COC1OC(=O)C(=C1Nc1ccc(cc1)Br)Br,258.1,0.562054667,0.4421,-8.5062,5.40471,323.887665636112,0.000585034,-0.7901,-9.0783,76.67024,-1.018,-9.029,6.06339,NaN,NaN,294,NaN,294,NaN,NaN
RTFRZUAVKHFVHM-UHFFFAOYSA-N,CCCCCCCCCCCCOc1c(OCCCCCCCCCCCC)c(C#Cc2ccc(cc2)OCCCCCCCCCCCC)c2c(c1C#Cc1ccc(cc1)OCCCCCCCCCCCC)non2,COc1c(OC)c(C#Cc2ccc(cc2)OC)c2c(c1C#Cc1ccc(cc1)OC)non2,385.1,1.77935139,-0.8341,-7.3552,1.71977,530.981577753763,0.633279476,-1.9098,-7.3268,43.88474,-1.762,-8.334,1.27662,421.7723261982564,1.259693901,429,NaN,429,NaN,NaN
BLNPTJJTWYEITH-UHFFFAOYSA-N,c1ccc(cc1)c1nc2c(nc1c1ccccc1)c(ccc2c1c2ccccc2cc2c1cccc2)c1c2ccccc2cc2c1cccc2,c1ccc(cc1)c1nc2c(nc1c1ccccc1)c(ccc2c1c2ccccc2cc2c1cccc2)c1c2ccccc2cc2c1cccc2,363.3,0.481684077,-0.3193,-7.3675,1.19833,383.37723687539784,0.565695087,-0.8977,-7.1137,6.05434,-1.118,-8.214,1.05417,NaN,NaN,350.0,18620.871366628657,347.0,9772.372209558112,DMSO
PPADGPIXXKTGOT-UHFFFAOYSA-N,Cc1ccc(s1)c1sc(c2c1cc1ccccc1c2)c1cccs1,Cc1ccc(s1)c1sc(c2c1cc1ccccc1c2)c1cccs1,484.4,0.454921565,-0.7381,-6.666,0.74405,616.2236501267578,0.354072771,-1.3841,-6.3744,196.06413,-1.651,-7.824,1.16222,NaN,NaN,578,NaN,578,NaN,CH 2 Cl
KRWIPIHTFZFHMM-UHFFFAOYSA-N,COCCN(S(=O)(=O)c1ccc(cc1)n1cccc1)CCOC,COCCN(S(=O)(=O)c1ccc(cc1)n1cccc1)CCOC,252.0,0.3520985,0.5026,-8.6041,4.62560,281.5263360706259,0.000958354,-0.5038,-8.4552,104.35140,-1.027,-9.17,3.21563,NaN,NaN,278.0,NaN,277.0,NaN,Hex
SWFYLWKYTXJELR-UHFFFAOYSA-N,COc1ccc2c(c1)cc(c1c2C=CC2(O1)N(C)c1c(C2(C)C)cc(cc1)Cl)c1nc(c(o1)c1ccccc1)c1ccccc1,COc1ccc2c(c1)cc(c1c2C=CC2(O1)N(C)c1c(C2(C)C)cc(cc1)Cl)c1nc(c(o1)c1ccccc1)c1ccccc1,345.8,0.208628221,-0.0358,-7.4616,4.57470,392.7279011894319,0.41510236,-0.8766,-7.2533,130.18406,-1.197,-8.302,2.61736,NaN,NaN,305,NaN,305,NaN,Toluene
DSBJVTQRAPAFGC-UHFFFAOYSA-N,CCOC(=O)c1nc2ccc3c4c2c(c1)c1ccccc1c4cc(n3)C(=O)OCC,CCOC(=O)c1nc2ccc3c4c2c(c1)c1ccccc1c4cc(n3)C(=O)OCC,317.0,0.022759796,-0.6539,-8.5958,0.41367,366.92571294910823,0.007611195,-1.4701,-8.4461,33.54199,-1.725,-9.384,1.08934,NaN,NaN,285,NaN,285,NaN,NaN
PSTNERVPGVZRFM-UHFFFAOYSA-N,c1ccc(cc1)n1c2ccc(cc2c2c1cccc2)c1nc(nc2c1cccc2)c1cccc(c1)c1ccc2c(c1)c1ccccc1c1c2cccc1,c1ccc(cc1)n1c2ccc(cc2c2c1cccc2)c1nc(nc2c1cccc2)c1cccc(c1)c1ccc2c(c1)c1ccccc1c1c2cccc1,307.7,0.068047886,-0.1549,-7.8048,4.35561,337.0967873994118,0.002566386,-0.5519,-7.6348,47.95130,-1.086,-8.382,4.06199,NaN,NaN,376.0,NaN,365.0,NaN,dichloromethane
PTOAARAWEBMLNO-KVQBGUIXSA-N,OC[C@H]1O[C@H](C[C@@H]1O)n1cnc2c1nc(Cl)nc2N,OC[C@H]1O[C@H](C[C@@H]1O)n1cnc2c1nc(Cl)nc2N,240.6,0.273408166,0.9277,-8.6456,3.25491,306.89158021164275,0.169457015,-0.4722,-8.4718,107.77235,-0.853,-9.285,2.90481,NaN,NaN,940,NaN,940,NaN,NaN
ZFOBPKGZUHMOEZ-UHFFFAOYSA-N,OCC1OC(CC1O)n1c(C#Cc2ccc(cc2)OC)nc2c1ncnc2N,OCC1OC(CC1O)n1c(C#Cc2ccc(cc2)OC)nc2c1ncnc2N,290.1,1.505157671,0.1372,-7.8051,5.26521,352.8292498733741,0.600630465,-0.4895,-7.6719,113.88390,-0.906,-8.653,5.44873,305.869478251485,1.2555402789,323,NaN,323,NaN,NaN
RTYBHLUYYRTBHB-UHFFFAOYSA-N,N#CC(=Cc1ccc(cc1)c1csc(c1)C=C(c1ccccc1)C#N)c1ccccc1,N#CC(=Cc1ccc(cc1)c1csc(c1)C=C(c1ccccc1)C#N)c1ccccc1,319.4,1.820233563,-0.6844,-8.183,8.00631,352.3279295410732,0.547070332,-0.8923,-7.9236,36.16987,-1.299,-8.94,3.65037,339.61758843301135,1.3370241677,357,NaN,357,NaN,NaN
DZBUGLKDJFMEHC-UHFFFAOYSA-N,c1ccc2c(c1)nc1c(c2)cccc1,c1ccc2c(c1)nc1c(c2)cccc1,342.3,0.099759669,-0.4294,-7.9864,1.96527,352.127800072433,0.156560496,-1.0034,-7.8565,12.83197,-1.335,-8.851,2.26497,NaN,NaN,355,NaN,355,NaN,NaN
FTZTYRHWSYFBDL-UHFFFAOYSA-N,C1CCC(=CC1)c1ccc(s1)c1cccs1,C1CCC(=CC1)c1ccc(s1)c1cccs1,300.1,0.878237352,0.4967,-7.5139,0.95573,358.0254068885465,0.531515817,-0.315,-7.4663,171.40211,-0.738,-8.924,1.05427,320.12443327973006,0.719177133,345.0,NaN,341.0,NaN,Ethanol
GLTDDRWOINAFPQ-UHFFFAOYSA-N,CCCCn1c(nc2c1c(sc2c1cccs1)c1cccs1)c1ccc(cc1)c1ccc(s1)C=C(C(=O)O)C#N,Cn1c(nc2c1c(sc2c1cccs1)c1cccs1)c1ccc(cc1)c1ccc(s1)C=C(C(=O)O)C#N,368.9,1.171717096,-1.2883,-7.161,5.33293,467.6884134496555,0.657493909,-1.8384,-6.8848,44.14409,-1.98,-8.204,2.31538,407.19979312020314,0.6854706485,388,36400.0,388,36400.0,THF
GTBCJLAXCLLICT-UHFFFAOYSA-N,CCCCCCN1c2ccc(cc2CCc2c1ccc(c2)c1ccc(s1)C=C(C(=O)O)C#N)c1ccc(cc1)N(c1ccccc1)c1ccccc1,CN1c2ccc(cc2CCc2c1ccc(c2)c1ccc(s1)C=C(C(=O)O)C#N)c1ccc(cc1)N(c1ccccc1)c1ccccc1,353.8,1.808105699,-0.9417,-7.2314,6.36138,432.0006913083751,0.875142272,-1.6291,-7.3223,696.09866,-1.757,-8.042,6.11864,NaN,NaN,459.0,NaN,336.0,NaN,NaN
ZNQLLCQUXROMJK-UHFFFAOYSA-N,OCc1c(nc2n1cccc2)c1ccc(cc1)Cl,OCc1c(nc2n1cccc2)c1ccc(cc1)Cl,293.9,0.102712751,0.4014,-8.1063,5.42995,359.7916378569462,0.267956416,-0.5644,-7.7124,173.38711,-0.904,-9.046,4.03168,NaN,NaN,323,NaN,323,NaN,NaN
ALWHVGRXMKAFRR-UHFFFAOYSA-N,Cc1ccc(cc1)c1nc(c(s1)c1ccccc1O)O,Cc1ccc(cc1)c1nc(c(s1)c1ccccc1O)O,315.6,0.93565013,0.0192,-7.7238,3.36432,375.36844809416795,0.543256657,-0.6726,-7.5631,98.78382,-1.23,-8.787,3.96851,NaN,NaN,359,NaN,359,NaN,Dioxane
XCKAGGOWHLJDMB-UHFFFAOYSA-N,CCCCCn1c2ccc(cc2c2c1ccc(c2)C=Cc1ccncc1)C=Cc1ccncc1,Cn1c2ccc(cc2c2c1ccc(c2)C=Cc1ccncc1)C=Cc1ccncc1,322.8,1.041745441,-0.1448,-7.5307,7.30784,337.8316032847511,0.01054862,-0.3499,-7.6217,53.43861,-0.804,-8.264,7.16122,333.5867651659791,1.0867344691,366.0,47200,323.0,40800,NaN
NHKUBVKKBBKMMX-UHFFFAOYSA-N,CCCCCCc1cc(sc1C=C(C(=O)O)C#N)c1ccc(s1)c1ccc2c(c1)Sc1c(N2CC(CCCC)CC)cccc1,Cc1cc(sc1C=C(C(=O)O)C#N)c1ccc(s1)c1ccc2c(c1)Sc1c(N2CC(C)CC)cccc1,367.8,1.781183248,-0.9246,-7.3662,6.86525,425.47768841971055,0.662270474,-1.4646,-7.6916,512.76476,-1.642,-7.962,5.82547,412.9365295894736,1.5327328433,494,26200.0,494,26200.0,NaN
OTEIABZGYLUQLL-UHFFFAOYSA-N,OCC(=O)CCc1ccc(cc1)C,OCC(=O)CCc1ccc(cc1)C,250.4,0.000364845,1.3462,-8.8922,2.93338,326.2742063302728,6.0608e-05,0.1126,-8.6486,90.87147,0.146,-9.376,3.71636,NaN,NaN,NaN,NaN,NaN,NaN,NaN
MMIFJFRUEUWBJS-UHFFFAOYSA-N,COc1ccc2c(c1)ccc1c2C=CC(O1)(c1ccccc1)c1ccccc1,COc1ccc2c(c1)ccc1c2C=CC(O1)(c1ccccc1)c1ccccc1,336.5,0.212116046,0.3885,-7.3407,1.99022,356.891762825284,0.220999361,-0.3719,-7.3937,59.72712,-0.759,-8.109,2.07979,NaN,NaN,468,NaN,468,NaN,NaN
RECUKUPTGUEGMW-UHFFFAOYSA-N,CC(c1ccc(c(c1)O)C)C,CC(c1ccc(c(c1)O)C)C,243.1,0.042681803,1.9005,-8.1903,1.29218,286.3376406593618,0.025114401,0.6819,-8.288,49.45429,0.285,-8.9,1.25006,NaN,NaN,275,NaN,275,NaN,NaN
JLQFFAIOUBLVFI-UHFFFAOYSA-N,OC(=O)c1ccccc1C(=O)c1c2cc(ccn2c2c1C(=O)c1ccccc1C2=O)c1ccncc1,OC(=O)c1ccccc1C(=O)c1c2cc(ccn2c2c1C(=O)c1ccccc1C2=O)c1ccncc1,389.3,0.169623753,-1.1999,-8.0793,5.03574,535.337644237926,0.245584847,-2.0299,-7.6666,30.85679,-1.723,-9.014,5.25742,NaN,NaN,479.0,NaN,469.0,NaN,EtOH
DHDHJYNTEFLIHY-UHFFFAOYSA-N,c1ccc(cc1)c1ccnc2c1ccc1c2nccc1c1ccccc1,c1ccc(cc1)c1ccnc2c1ccc1c2nccc1c1ccccc1,295.3,0.186387934,0.1915,-8.3092,3.94305,330.9775718246227,0.000179586,-0.3732,-8.0368,68.33574,-0.929,-9.109,4.2537,NaN,NaN,279,64200.0,279,64200.0,CH 2 Cl 2
BDGCTFRJTJDIHP-UHFFFAOYSA-N,CCCCCc1ccc(cc1)n1c2nc(C#N)c(nc2c(c1C)C(=O)C)C#N,Cc1ccc(cc1)n1c2nc(C#N)c(nc2c(c1C)C(=O)C)C#N,301.9,0.103224915,-0.9423,-9.3329,9.22555,366.27532763812013,0.336000612,-1.7074,-8.7894,160.63332,-1.881,-9.73,8.62438,NaN,NaN,326,NaN,326,NaN,NaN
ZSBKMKDHZGPVHZ-UHFFFAOYSA-N,CSc1ccc(cc1)C=Cc1ccc2c(c1)c1ccccc1n2CC,CSc1ccc(cc1)C=Cc1ccc2c(c1)c1ccccc1n2CC,318.2,1.008989515,0.2343,-7.2872,4.28916,330.9775718246227,0.045154674,0.0018,-7.4584,219.13455,-0.523,-8.131,3.97316,329.2198433596374,1.0261364869,337.0,NaN,332.0,NaN,DMF
GNASUDVEZNKBPR-UHFFFAOYSA-N,CCOC(=O)c1cc2cc(cn2cc1c1ccc(cc1)Cl)C(=O)C,CCOC(=O)c1cc2cc(cn2cc1c1ccc(cc1)Cl)C(=O)C,337.8,0.11776972,-0.016,-7.9608,2.26867,393.7256221197322,0.207382111,-1.1403,-7.9334,148.26547,-1.182,-8.966,2.06178,NaN,NaN,272,68400,272,68400,dichloromethane
DLOXKGGNIPQUAK-UHFFFAOYSA-N,N#CC(=C(c1ccc(cc1)N)C=Cc1cn(c2c1cccc2)C)C#N,N#CC(=C(c1ccc(cc1)N)C=Cc1cn(c2c1cccc2)C)C#N,326.3,1.446270123,-0.6978,-7.7202,11.85022,390.87073898330283,0.756619091,-1.2657,-7.6731,105.27291,-1.376,-8.5,8.79874,364.20948536877813,0.9530192542,441,NaN,441,NaN,MeOH
YCIMNLLNPGFGHC-UHFFFAOYSA-N,Oc1ccccc1O,Oc1ccccc1O,245.3,0.040856037,1.8929,-8.1454,2.43104,280.88853286249133,0.015654991,0.4847,-8.6399,46.88771,-0.039,-8.94,2.25592,NaN,NaN,0,NaN,0,NaN,NaN
OLDMHLIGVBYMDR-UHFFFAOYSA-N,CCCCCCCCC1(CCCCCCCC)c2cc3nc([nH]c3cc2c2c1cccc2)c1ccc(cc1)[N+](=O)[O-],C1(C)c2cc3nc([nH]c3cc2c2c1cccc2)c1ccc(cc1)[N+](=O)[O-],322.3,1.443527947,-0.8989,-7.842,5.23071,449.5438665899335,0.6394872,-2.6403,-7.6204,308.35069,-1.741,-8.844,6.17885,338.9491047028061,1.2562226526,400.0,NaN,391.0,NaN,DMSO
HGNFLENFLFGROZ-UHFFFAOYSA-N,N#CC(=C1C(=Cc2oc3c([n+]2C)cccc3)C(=C1C=c1sc2c(n1C)cccc2)[O-])C#N,N#CC(=C1C(=Cc2oc3c([n+]2C)cccc3)C(=C1C=c1sc2c(n1C)cccc2)[O-])C#N,540.4,1.018381642,-1.1513,-6.5032,14.36649,747.7937177654021,0.462662459,-2.1424,-6.6777,160.61720,-2.331,-7.038,16.95047,598.2638149451817,0.8037561245,682.0,NaN,395.0,NaN,NaN
DXPZRZBIUFSYJK-UHFFFAOYSA-N,CC(=O)Sc1ccc(cc1)C#Cc1ccc(cc1)n1c2ccccc2c2c1cccc2,CC(=O)Sc1ccc(cc1)C#Cc1ccc(cc1)n1c2ccccc2c2c1cccc2,286.6,0.102171351,0.2665,-7.6984,2.20764,335.4550822659731,0.000358621,0.0367,-7.559,329.51013,-0.931,-8.234,2.11697,312.16907875529233,1.5513872394,373.0,29300.0,340.0,29300.0,NaN
ZOINQUGLGZKPQF-UHFFFAOYSA-N,FC1(F)c2cccnc2c2c1cccn2,FC1(F)c2cccnc2c2c1cccn2,273.6,0.127344106,-0.0436,-9.0846,1.39538,NaN,NaN,NaN,Nan,NaN,-1.465,-10.045,1.58766,NaN,NaN,309,NaN,309,NaN,NaN
WUBBRNOQWQTFEX-UHFFFAOYSA-N,Nc1ccc(c(c1)O)C(=O)O,Nc1ccc(c(c1)O)C(=O)O,263.9,0.102170633,0.8813,-8.1921,3.42948,309.7281998638613,0.207795009,-0.7615,-8.6454,68.85683,-0.446,-9.09,4.30473,NaN,NaN,NaN,NaN,NaN,NaN,NaN
HNDVDQJCIGZPNO-YFKPBYRVSA-N,N[C@H](C(=O)O)Cc1c[nH]cn1,N[C@H](C(=O)O)Cc1c[nH]cn1,214.1,0.004744756,2.3751,-8.7766,4.11852,285.2178477237259,0.000269559,0.365,-8.1832,42.65193,0.369,-9.515,3.93176,NaN,NaN,1240,NaN,1240,NaN,NaN
AXCLABJEKXSIHP-DJLDLDEBSA-N,OC[C@H]1O[C@H](C[C@@H]1O)n1cc(c2ncco2)c(=O)[nH]c1=O,OC[C@H]1O[C@H](C[C@@H]1O)n1cc(c2ncco2)c(=O)[nH]c1=O,258.9,0.519232331,0.4131,-8.6433,3.90471,345.6487270853182,0.349004156,-1.199,-8.4351,53.04119,-0.899,-9.332,3.84605,NaN,NaN,296.0,NaN,292.0,NaN,NaN
TXUZVZSFRXZGTL-UHFFFAOYSA-N,CCC(=C(c1ccc(cc1)O)c1ccc(cc1)OCCN(C)C)c1ccccc1,CCC(=C(c1ccc(cc1)O)c1ccc(cc1)OCCN(C)C)c1ccccc1,272.1,0.463755277,1.07,-7.42,2.18729,295.62279066643697,0.060885849,0.4225,-7.6123,99.07285,0.144,-8.592,1.84457,NaN,NaN,NaN,NaN,NaN,NaN,NaN
OHDHITMBJRPLOJ-UHFFFAOYSA-N,COc1ccc(cc1)c1ncnc2c1cc(OC)c(c2c1ccc(cc1)C(F)(F)F)OC,COc1ccc(cc1)c1ncnc2c1cc(OC)c(c2c1ccc(cc1)C(F)(F)F)OC,305.6,0.318859547,-0.2142,-8.2766,5.94249,342.6871155486558,0.285840128,-0.8854,-8.1682,330.02954,-1.38,-9.016,6.4185,NaN,NaN,360,NaN,360,NaN,NaN
BEFPIHVRQQQFFB-DUFVWYDBSA-N,FC(C[C@H]([C@H](C(=O)O)O)NC(=O)[C@H](NC(=O)[C@]1(Cc2c(N1)cccc2)Cc1ccsc1C(=O)O)CC(C)C)F,FC(C[C@H]([C@H](C(=O)O)O)NC(=O)[C@H](NC(=O)[C@]1(Cc2c(N1)cccc2)Cc1ccsc1C(=O)O)CC(C)C)F,277.3,0.054671774,-0.0376,-8.1039,6.19424,320.28984346552227,0.268128053,-1.3126,-8.4132,317.18835,-1.346,-8.678,5.7836,NaN,NaN,NaN,NaN,NaN,NaN,NaN
IKNSAEUNGJFIIH-UHFFFAOYSA-N,Clc1cccc(c1)c1nc(c(s1)c1ccccc1O)O,Clc1cccc(c1)c1nc(c(s1)c1ccccc1O)O,315.8,0.869441764,-0.2637,-7.9565,2.36582,403.463060219667,0.56199907,-1.2036,-7.7031,128.14287,-1.434,-8.908,2.63835,333.1206991301202,0.6813292547,368,NaN,368,NaN,Dioxane
AMOJWCBKFSJUGM-UHFFFAOYSA-N,O=c1oc2ccccc2cc1c1csc(n1)N=Nc1c(N)n(C)c(=O)n(c1=O)C,O=c1oc2ccccc2cc1c1csc(n1)N=Nc1c(N)n(C)c(=O)n(c1=O)C,436.6,0.00053134,-0.4655,-7.7772,9.28220,553.9955246001057,0.001850889,-1.8548,-7.7934,183.58663,-1.363,-8.557,8.93506,NaN,NaN,444.0,41686.93834703355,437.0,6025.595860743575,DMSO
MZKLSOUYNBYHCO-UHFFFAOYSA-N,O=c1nc(nc2c1cc1ccccc1[nH]2)c1ccccc1,O=c1nc(nc2c1cc1ccccc1[nH]2)c1ccccc1,374.7,0.00062899,-1.1247,-8.5357,8.43552,398.1509261576868,0.000540124,-1.5933,-8.5792,50.17122,-1.804,-9.246,7.99802,NaN,NaN,382.0,29512.09226666384,256.0,8128.305161640995,NaN
DXCUKNQANPLTEJ-UHFFFAOYSA-N,CCN(CCCCNc1ncc2c(n1)nc(c(c2)c1cc(OC)cc(c1)OC)NC(=O)NC(C)(C)C)CC,CCN(CNc1ncc2c(n1)nc(c(c2)c1cc(OC)cc(c1)OC)NC(=O)NC(C)(C)C)CC,300.3,0.436412336,0.0901,-7.9781,4.76497,357.92205082420224,0.370340094,-0.9227,-8.1362,192.19450,-0.879,-8.698,5.0821,NaN,NaN,NaN,NaN,NaN,NaN,NaN
CANKEDAOOHMFEZ-UHFFFAOYSA-N,CCCCCCN1c2ccc(cc2Sc2c1cccc2)C=C(C(=O)O)C#N,CN1c2ccc(cc2Sc2c1cccc2)C=C(C(=O)O)C#N,347.9,0.397213482,-0.7524,-7.7153,8.76363,333.20128569068436,0.021218723,-1.1779,-7.9895,176.68525,-1.499,-8.049,5.11898,NaN,NaN,432.0,7968,396.0,7968,NaN
XOGIFCAGQBTOQE-CHWSQXEVSA-N,O=C[C@@H]([C@@H](c1ccccc1)C[N+](=O)[O-])C(C)C,O=C[C@@H]([C@@H](c1ccccc1)C[N+](=O)[O-])C(C)C,299.2,0.000212194,0.356,-9.4358,3.80733,419.29049173318793,0.000166124,-2.5094,-9.0045,131.77520,-0.153,-9.906,4.1954,NaN,NaN,NaN,NaN,NaN,NaN,NaN
QNDJJWAXYDYGCR-UHFFFAOYSA-N,COc1ccc(cc1)N1c2ccsc2Sc2c1ccs2,COc1ccc(cc1)N1c2ccsc2Sc2c1ccs2,343.1,0.018613065,1.017,-6.9076,4.68031,365.1964606936779,0.026677456,0.0439,-7.3398,246.75334,-0.589,-7.239,5.03397,NaN,NaN,242,NaN,242,NaN,NaN
PLDISGVCDWLKQC-UHFFFAOYSA-N,O=C1c2ccccc2C(=O)c2c1c(O)c(c(c2)O)C(=O)O,O=C1c2ccccc2C(=O)c2c1c(O)c(c(c2)O)C(=O)O,352.7,7.646e-06,-1.617,-9.1673,5.97853,413.97061237229934,7.226e-06,-2.4556,-9.4212,151.36458,-2.175,-10.062,6.07372,NaN,NaN,417,NaN,417,NaN,NaN
VWRZZDHTLUQWJL-UHFFFAOYSA-N,[O-][N+](=O)c1cc2C(=CC=C3N(C)c4c(C3(C)C)cccc4)c3c(c2c(c1)[N+](=O)[O-])c(cc(c3)[N+](=O)[O-])[N+](=O)[O-],[O-][N+](=O)c1cc2C(=CC=C3N(C)c4c(C3(C)C)cccc4)c3c(c2c(c1)[N+](=O)[O-])c(cc(c3)[N+](=O)[O-])[N+](=O)[O-],440.1,0.315302611,-1.8846,-7.9646,10.83179,631.2841059343364,0.100160684,-3.5926,-8.2716,406.68768,-2.805,-8.772,10.19601,NaN,NaN,640,NaN,640,NaN,Toluene
KGHDOXRXIGZLQU-UHFFFAOYSA-N,c1csc(c1)c1cc2cccc3c2c(n1)c1cccc2c1c3nc(c2)c1cccs1,c1csc(c1)c1cc2cccc3c2c(n1)c1cccc2c1c3nc(c2)c1cccs1,391.1,0.523798091,-0.9587,-7.4239,0.88543,430.2019375624693,0.561248322,-1.3288,-7.1869,82.70708,-1.706,-8.425,0.57411,NaN,NaN,315,NaN,315,NaN,toluene
OBFWVPAWQMRFAA-UHFFFAOYSA-N,COc1ccc(cc1)N=Cc1ccc[nH]1,COc1ccc(cc1)N=Cc1ccc[nH]1,299.8,0.810211472,0.5595,-7.4737,1.26919,348.3680764414264,0.001909856,-0.3172,-7.9508,19.11152,-0.17,-8.605,1.72102,314.1862880980169,0.7685725449,336,NaN,336,NaN,NaN
NSMXQNAFGPXHDB-UHFFFAOYSA-N,CCCCCc1ccc(cc1)Nc1nc(C#N)c(nc1CC(C1=Nc2c(N(C1C)c1ccc(cc1)CCCCC)cc(n2C#N)C#N)O)C#N,Cc1ccc(cc1)Nc1nc(C#N)c(nc1CC(C1=Nc2c(N(C1C)c1ccc(cc1)C)cc(n2C#N)C#N)O)C#N,358.8,0.214348098,-0.8675,-8.0415,6.09787,432.9057206896078,0.191578704,-1.4976,-7.8034,62.29041,-1.636,-8.447,7.86289,NaN,NaN,533,NaN,533,NaN,NaN
ROXVSAIZMAXPIL-UHFFFAOYSA-N,CCN(c1ccc(cc1)C=C1SC(=S)N(C1=O)CC(=O)O)CC,CCN(c1ccc(cc1)C=C1SC(=S)N(C1=O)CC(=O)O)CC,343.8,1.361469427,-0.625,-7.5058,9.77860,462.9731083103199,9.1366e-05,-1.4223,-8.0336,443.80126,-1.366,-8.234,9.42988,380.33127706138055,0.0035538772,458,35750,458,35750,DMF
NUDMLIBDLWJXTH-UHFFFAOYSA-N,Fc1ccc(cc1)c1nc2c(n1c1ccccc1)c1ccccc1c1c2cccc1,Fc1ccc(cc1)c1nc2c(n1c1ccccc1)c1ccccc1c1c2cccc1,300.8,0.239379418,0.5725,-7.4465,3.92456,368.45229838188305,0.32844873,-0.408,-7.2002,144.74796,-0.761,-8.399,4.39754,NaN,NaN,345.0,NaN,262.0,NaN,NaN
ZCOLJUOHXJRHDI-CMWLGVBASA-N,OC[C@H]1O[C@@H](Oc2cc(O)c3c(c2)occ(c3=O)c2ccc(cc2)O)[C@@H]([C@H]([C@@H]1O)O)O,OC[C@H]1O[C@@H](Oc2cc(O)c3c(c2)occ(c3=O)c2ccc(cc2)O)[C@@H]([C@H]([C@@H]1O)O)O,278.4,0.077003124,0.2592,-8.1975,1.19373,364.3379324287501,0.000729494,-1.1006,-8.2927,112.09365,-0.872,-8.958,4.39348,NaN,NaN,NaN,NaN,NaN,NaN,NaN
JFEJUTZUKIOKNI-UHFFFAOYSA-N,CCCCCCCOc1cc(c(cc1C(=Cc1ccc(cc1)OC)C#N)OCCCCCCC)C(=Cc1ccc(cc1)OC)C#N,COc1cc(c(cc1C(=Cc1ccc(cc1)OC)C#N)OC)C(=Cc1ccc(cc1)OC)C#N,325.5,0.186144902,-0.2131,-7.9001,11.38673,321.61919171336876,0.169441644,-0.4763,-8.0518,84.60727,-0.95,-8.56,4.08305,NaN,NaN,432.0,NaN,366.0,NaN,dichloromethane
ROFVEXUMMXZLPA-UHFFFAOYSA-N,c1ccc(nc1)c1ccccn1,c1ccc(nc1)c1ccccn1,267.3,0.008247829,0.3741,-8.7511,0.00005,303.6595601408368,0.498389171,-0.3943,-8.3358,0.00125,-0.886,-9.503,0.00044,NaN,NaN,523,NaN,523,NaN,NaN
PQQCCGBTHILLID-UHFFFAOYSA-N,OC(=O)CN(CC(=O)O)CCN(c1ccc2c(c1)oc(=O)c(c2)C(=O)O)CCN(CC(=O)O)CC(=O)O,OC(=O)CN(CC(=O)O)CCN(c1ccc2c(c1)oc(=O)c(c2)C(=O)O)CCN(CC(=O)O)CC(=O)O,306.2,0.705424533,-0.6536,-8.4197,8.48226,380.9038353471695,0.597843253,-1.6686,-8.4591,121.24209,-1.517,-9.069,5.00209,NaN,NaN,375,NaN,375,NaN,NaN
NUEHZAHSWVRWIV-HZPDHXFCSA-N,C1CC[C@H]([C@@H](C1)NCc1cccs1)NCc1cccs1,C1CC[C@H]([C@@H](C1)NCc1cccs1)NCc1cccs1,227.0,0.132178065,1.5408,-8.4581,1.32877,285.15225024264873,0.049655955,0.328,-8.1079,144.21992,-0.307,-8.842,1.96955,NaN,NaN,350.0,NaN,235.0,NaN,methanol
SRPCPRSDICCCRQ-UHFFFAOYSA-N,Oc1ccc2c(c1N=Nc1ccc3c(c1S(=O)(=O)O)cccc3)cccc2,Oc1ccc2c(c1N=Nc1ccc3c(c1S(=O)(=O)O)cccc3)cccc2,454.2,0.150606527,-1.4058,-8.139,5.95327,554.9874592905267,0.038838181,-1.7347,-7.8642,205.00361,-1.516,-8.716,3.76661,NaN,NaN,493,NaN,493,NaN,NaN
BOKMNAIIXLNJAM-UHFFFAOYSA-N,CCCCCCOc1cc(C=C(C(=O)O)C#N)c(cc1n1nnc(c1)c1ccc(s1)c1ccc(cc1)N(c1ccccc1)c1ccccc1)OCCCCCC,COc1cc(C=C(C(=O)O)C#N)c(cc1n1nnc(c1)c1ccc(s1)c1ccc(cc1)N(c1ccccc1)c1ccccc1)OC,342.3,1.664914536,-1.0001,-7.1172,4.39499,384.2088577796829,1.041264309,-1.6044,-7.1838,569.86239,-1.853,-8.029,4.26183,378.1504651515523,1.0089661192,428.0,NaN,308.0,NaN,NaN
OUNLMIOGLOXBBR-UHFFFAOYSA-N,O=C(NC1(CC=CC=C1)C(F)(F)F)Nc1ccccc1c1scc(n1)c1ccccc1,O=C(NC1(CC=CC=C1)C(F)(F)F)Nc1ccccc1c1scc(n1)c1ccccc1,304.6,0.392883041,0.0619,-7.979,4.52591,357.71551761541735,0.292138315,-0.9177,-8.0007,169.87744,-1.249,-8.658,5.61369,NaN,NaN,388.0,NaN,317.0,NaN,NaN
INIIOIKHCOMKOS-UHFFFAOYSA-N,COC(=O)CCCCCn1c(=O)c2cccc3c2c(c1=O)ccc3NCc1ccccc1,COC(=O)Cn1c(=O)c2cccc3c2c(c1=O)ccc3NCc1ccccc1,345.6,0.395369933,-0.5638,-7.9756,9.53545,371.09906736157933,0.425581728,-1.5365,-8.2645,262.97256,-1.257,-8.575,8.60359,NaN,NaN,439.0,NaN,421.0,NaN,DMSO