inchikey,smi_pre,smi_post,lambda_sTDA (nm),f1_sTDA,lumo_dft,homo_dft,dmom_dft (D),lambda_z (nm),f1_z,lumo_z,homo_z,dmom_z (D),lumo_mopac,homo_mopac,dmom_mopac (D),lambda_tddft (nm),f1_tddft,lambda_exp_max (nm),epsilon_exp_max ,lambda_exp_min (nm),epsilon_exp_min ,solvent
DHZOPOGNSRQJKK-UHFFFAOYSA-N,CCCCCCOc1ccc(cc1)c1ccc(s1)c1ccc(s1)c1ccc(cc1)C#N,COc1ccc(cc1)c1ccc(s1)c1ccc(s1)c1ccc(cc1)C#N,346.7,1.705743681,-0.4353,-7.4933,7.30693,430.50068890799884,0.912072887,-1.0184,-7.2337,55.83379,-1.37,-8.682,6.22266,374.5293408930626,1.4336931994,400,42657.95188015926,400,42657.95188015926,NaN
SPLDMPNOUHYDEI-UHFFFAOYSA-N,Cc1cc(C=Nc2c(C)cccc2C)c(c(c1)C(c1ccccc1)c1ccccc1)O,Cc1cc(C=Nc2c(C)cccc2C)c(c(c1)C(c1ccccc1)c1ccccc1)O,302.1,0.358515155,0.2649,-8.0755,2.07753,359.47868485214167,0.00069289,-0.4912,-8.1762,31.31376,-0.52,-8.751,2.80657,NaN,NaN,346.0,NaN,105.0,NaN,Toluene
CUYCCXWWXONZHC-UHFFFAOYSA-N,CCOC(=O)C(=Cc1cn(c2c1cccc2)CC)C#N,CCOC(=O)C(=Cc1cn(c2c1cccc2)CC)C#N,301.2,0.794964134,-0.2235,-7.9946,3.73446,383.25872768316435,0.430689735,-1.272,-8.0185,99.07459,-1.147,-8.774,4.97698,NaN,NaN,393.0,NaN,384.0,NaN,Toluene
CUWYZDRREWBUEC-UHFFFAOYSA-N,CCNc1nnc(s1)c1ccc(cc1)NC(=S)Nc1ccccc1,CCNc1nnc(s1)c1ccc(cc1)NC(=S)Nc1ccccc1,300.3,0.685091019,0.1717,-7.8371,7.20267,397.64014883099316,0.000101018,-0.6395,-7.9943,130.08383,-1.207,-8.379,2.4796,NaN,NaN,465,NaN,465,NaN,NaN
XJBNQJUYAGNJLO-UHFFFAOYSA-N,Clc1cccc(c1)NN=C(C(=O)c1ccccc1)c1nc(C)cc(=O)[nH]1,Clc1cccc(c1)NN=C(C(=O)c1ccccc1)c1nc(C)cc(=O)[nH]1,331.3,0.272979945,-0.8384,-8.3056,5.16064,422.43338468655423,0.011422701,-1.7535,-8.5472,218.26256,-1.469,-9.278,1.57234,NaN,NaN,383.0,23988.329190194898,297.0,8511.380382023768,NaN
MTDSHRDWHUXPQH-UHFFFAOYSA-N,Oc1ccc(c(c1)O)c1nc2c([nH]1)cccc2,Oc1ccc(c(c1)O)c1nc2c([nH]1)cccc2,280.6,0.681541325,0.5808,-7.8031,5.08598,351.32955059649663,0.58319975,-0.6493,-7.7473,82.06606,-0.797,-8.704,2.53671,NaN,NaN,326.0,NaN,316.0,NaN,Water
QVZWLMMVSGRELS-UHFFFAOYSA-N,CN(c1ccc(cc1)C=c1c(O)c2ccccc2c2c1nc1ccccc1[nH]2)C,CN(c1ccc(cc1)C=c1c(O)c2ccccc2c2c1nc1ccccc1[nH]2)C,849.3,0.425701307,-0.9669,-5.5457,3.35196,677.1392594511397,0.345024745,-1.3828,-6.2202,50.90408,-1.339,-6.916,3.64504,NaN,NaN,571.0,NaN,446.0,NaN,THF
DSRNRYQBBJQVCW-UHFFFAOYSA-N,COc1ccc(cc1Cl)NC(=O)N(C)C,COc1ccc(cc1Cl)NC(=O)N(C)C,265.6,0.074855779,1.5342,-7.7569,2.66145,292.5535592390365,0.039606151,0.09,-8.4729,134.82071,-0.217,-8.469,3.21494,NaN,NaN,445,NaN,445,NaN,NaN
NOQJDNSBQZDHAF-UHFFFAOYSA-N,O=C(NC12CC3CC(C1)CC(C2)(C3)NC(=O)Nc1ccc2c(c1)cc1c(c2)cccc1)Nc1ccc2c(c1)cc1c(c2)cccc1,O=C(NC12CC3CC(C1)CC(C2)(C3)NC(=O)Nc1ccc2c(c1)cc1c(c2)cccc1)Nc1ccc2c(c1)cc1c(c2)cccc1,363.2,0.106839988,-0.3081,-7.1349,5.76178,371.9897941959306,0.139454089,-0.9095,-7.1245,76.32730,-1.28,-8.111,5.11045,NaN,NaN,407.0,NaN,263.0,NaN,DMSO
VYSHMQCYYNNNKM-UHFFFAOYSA-N,CCC(=O)N1CC2CCCC(C1)N2CC=C(c1ccc(cc1)F)c1ccc(cc1)F,C(=O)N1CC2C(C1)N2CC=C(c1ccc(cc1)F)c1ccc(cc1)F,246.7,0.086068838,0.7293,-8.498,4.96623,283.00433326980976,0.038788315,-0.0702,-8.4586,66.87148,-0.499,-9.431,5.19089,NaN,NaN,NaN,NaN,NaN,NaN,NaN
WTCJNWRAJYMGKI-UHFFFAOYSA-N,c1scc(c1)c1ccc(cc1)c1cscc1,c1scc(c1)c1ccc(cc1)c1cscc1,263.3,0.642813211,0.6926,-8.0008,0.00062,295.130203298033,0.264150086,-0.146,-7.9081,0.04604,-0.658,-8.592,0.32147,NaN,NaN,1800,NaN,1800,NaN,NaN
XHAXXZBTXUEECP-UHFFFAOYSA-N,CN1c2cccc(c2Sc2c1cccc2)C=Nc1ccc2c(c1)Cc1c2cccc1,CN1c2cccc(c2Sc2c1cccc2)C=Nc1ccc2c(c1)Cc1c2cccc1,319.5,1.029768303,0.0153,-7.5823,2.99722,331.3313693359264,0.21535756,0.0058,-7.4943,91.67853,-0.549,-7.856,4.0281,333.41632068315886,0.0582322808,351.0,17073,312.0,14361,DCM
YLPPIKRUTBCLSZ-UHFFFAOYSA-N,CCN(c1ccc2c(c1)oc(=NC(=O)NC(C)C)c(c2)C#N)CC,CCN(c1ccc2c(c1)oc(=NC(=O)NC(C)C)c(c2)C#N)CC,328.1,0.88253887,-0.3889,-7.7738,9.09259,401.89367392383684,0.564633368,-1.3821,-7.9104,139.18592,-1.191,-8.507,9.6128,351.3394910857192,0.7406801902,439.0,NaN,433.0,NaN,NaN
BUYHNPMBJRJUPJ-UHFFFAOYSA-N,BrCc1ccc(nc1)c1ccccn1,BrCc1ccc(nc1)c1ccccn1,269.7,0.010973858,0.0221,-8.7764,2.04227,312.46017743322494,0.549968653,-0.5771,-8.3119,292.27404,-1.132,-9.495,1.39933,NaN,NaN,NaN,NaN,NaN,NaN,NaN
ATPFMEOQQCSPPV-UHFFFAOYSA-N,CCCCn1cc(c2c1cccc2)C=Cc1cc(=O)oc2c1ccc(c2)C,Cn1cc(c2c1cccc2)C=Cc1cc(=O)oc2c1ccc(c2)C,306.5,0.916581941,-0.1718,-7.6593,8.11838,337.1884645240785,0.204480153,-0.9246,-7.6712,128.46178,-0.954,-8.421,8.45792,NaN,NaN,398,NaN,398,NaN,chloroform
BLCCQDRNKHOOFE-UHFFFAOYSA-N,COC(=O)c1c(C)nn(c1c1ccccc1O)c1nc2c(s1)cccc2,COC(=O)c1c(C)nn(c1c1ccccc1O)c1nc2c(s1)cccc2,267.6,0.456487645,-0.0128,-8.6707,3.17737,323.2121960518865,0.473713431,-0.9701,-8.4116,85.83375,-1.422,-9.132,4.16664,NaN,NaN,292,NaN,292,NaN,DMSO
AOUPOIFAIVDHEQ-UHFFFAOYSA-N,CCc1ccc(cc1)n1c(nc(c1c1ccccc1)c1ccccc1)c1ccccc1,CCc1ccc(cc1)n1c(nc(c1c1ccccc1)c1ccccc1)c1ccccc1,274.8,0.453195322,0.842,-7.4775,4.72637,349.6452295699483,0.335500772,-0.022,-7.1385,71.29132,-0.434,-8.397,5.45898,NaN,NaN,356,NaN,356,NaN,NaN
BHZHFEYVYBKBDG-UHFFFAOYSA-N,COc1ccc(cc1)C1(c2ccc(cc2)OC)c2cccnc2c2c1cccn2,COc1ccc(cc1)C1(c2ccc(cc2)OC)c2cccnc2c2c1cccn2,268.8,0.112317342,0.3485,-8.2213,5.34429,339.2180530930333,0.314174417,-0.4976,-7.8451,30.56039,-0.87,-8.866,3.65226,NaN,NaN,310,NaN,310,NaN,NaN
SYYWOTGSPMDOOA-UHFFFAOYSA-N,c1ccc(cc1)c1cccc(n1)c1nccc(c1)c1ccc(cc1)C=Cc1ccc(cc1)N(c1ccccc1)c1ccccc1,c1ccc(cc1)c1cccc(n1)c1nccc(c1)c1ccc(cc1)C=Cc1ccc(cc1)N(c1ccccc1)c1ccccc1,343.3,1.885116098,-0.1176,-7.0898,1.80511,332.4864532193716,0.869369881,-0.3783,-7.2141,116.63807,-0.892,-7.959,1.45645,353.8765641318628,1.7565931495,557.0,NaN,294.0,NaN,DMF
KQNRPTRNDAYHCO-UHFFFAOYSA-N,CCCCC(Cn1c(=O)c2c(c1c1ccc(o1)c1cc3c(s1)cccc3)c(=O)n(c2c1ccc(o1)c1cc2c(s1)cccc2)CC(CCCC)CC)CC,C(Cn1c(=O)c2c(c1c1ccc(o1)c1cc3c(s1)cccc3)c(=O)n(c2c1ccc(o1)c1cc2c(s1)cccc2)CC(C)CC)CC,494.5,2.11513387,-1.1953,-6.8064,1.22553,568.4740871412364,1.337478764,-1.7923,-7.0251,125.93360,-1.665,-8.127,1.88643,541.3211360864453,1.4940381055,620.0,NaN,358.0,NaN,CH 2 Cl
YMBHOZUXCYNMAF-UHFFFAOYSA-N,Brc1ccc(cc1)[N+](=Cc1ccc2c(c1)Sc1c(N2C)cccc1)[O-],Brc1ccc(cc1)[N+](=Cc1ccc2c(c1)Sc1c(N2C)cccc1)[O-],337.6,0.653543673,-0.1204,-7.2507,4.98695,383.37723687539784,0.434578595,-1.2015,-7.8488,556.44224,-1.22,-7.624,1.65508,NaN,NaN,316,NaN,316,NaN,dichloromethane
DOYCRQFCSYMDKZ-UHFFFAOYSA-N,O=C(c1cn(C)c2c(c1=O)cccc2)c1ccccc1Cc1ccccc1,O=C(c1cn(C)c2c(c1=O)cccc2)c1ccccc1Cc1ccccc1,295.6,0.015929944,0.2826,-8.3111,5.96725,385.64291883515915,0.000142707,-0.8733,-8.249,68.11381,-0.644,-8.808,6.59964,NaN,NaN,503.0,NaN,332.0,NaN,NaN
HSSLDCABUXLXKM-UHFFFAOYSA-N,Oc1ccc2c(c1)oc1c(n2)ccc(=O)c1,Oc1ccc2c(c1)oc1c(n2)ccc(=O)c1,368.4,0.49601453,-1.244,-8.1393,5.06833,427.38434472769273,0.721545202,-2.2349,-8.2939,33.98203,-1.917,-9.134,4.41207,NaN,NaN,2000.0,NaN,0.0,NaN,NaN
KGPVLIZCXVEPHP-UHFFFAOYSA-N,CCCCCCc1ccc(cc1)N(c1ccc(cc1)C=C1SC(=S)N(C1=O)CC(=O)O)c1ccc(cc1)C=NN(c1ccccc1)CCCCCCCCC,Cc1ccc(cc1)N(c1ccc(cc1)C=C1SC(=S)N(C1=O)CC(=O)O)c1ccc(cc1)C=NN(c1ccccc1)C,372.6,1.505871212,-0.7727,-7.1364,8.04033,464.5342765286761,0.000102003,-1.5032,-7.5148,695.24569,-1.51,-8.076,6.79111,400.1942900785625,1.3117535723,500.0,NaN,477.0,NaN,NaN
HZUOCIQSIPUPQG-UHFFFAOYSA-N,c1ccc(nc1)c1cccc(c1)c1ccc2c(c1)Cc1c2ccc(c1)c1nc2c(s1)cccc2,c1ccc(nc1)c1cccc(c1)c1ccc2c(c1)Cc1c2ccc(c1)c1nc2c(s1)cccc2,318.4,1.76759992,-0.1442,-7.7123,3.20729,363.6966805676259,1.108284558,-0.8136,-7.5826,202.77313,-1.28,-8.741,2.08342,321.9699621097939,1.7252443886,273,88200.0,273,88200.0,NaN
OSHZNINVSSOODP-UHFFFAOYSA-N,Cc1cc(C)c(c(c1)C)c1nc2c([nH]1)c1cccnc1c1c2cccn1,Cc1cc(C)c(c(c1)C)c1nc2c([nH]1)c1cccnc1c1c2cccn1,296.3,0.010468995,0.4085,-7.9509,5.63035,364.23090013367704,0.045816899,-0.2859,-7.3015,128.24895,-0.905,-8.695,6.25307,NaN,NaN,298,28760,298,28760,NaN
QADVCROQABGISY-UHFFFAOYSA-N,O=C1C(=CC=CC=C2C=C(OC(=C2)c2ccccc2)c2ccccc2)C(=O)c2c1cccc2,O=C1C(=CC=CC=C2C=C(OC(=C2)c2ccccc2)c2ccccc2)C(=O)c2c1cccc2,413.8,2.945380061,-1.0976,-7.0782,6.87356,471.0645836075367,1.714633133,-1.5077,-7.1543,118.06012,-1.394,-8.135,5.39743,464.2733308715201,2.1864630558,599,NaN,599,NaN,dichloromethane
HZFJROQQBWRJEN-UHFFFAOYSA-N,CCOC(=O)c1cc2cc(CN(CC(=O)O)CC(=O)O)c(c(c2oc1=O)CN(CC(=O)O)CC(=O)O)OCCN(CC(=O)O)CC(=O)O,CCOC(=O)c1cc2cc(CN(CC(=O)O)CC(=O)O)c(c(c2oc1=O)CN(CC(=O)O)CC(=O)O)OCCN(CC(=O)O)CC(=O)O,295.1,0.458176905,-0.6694,-8.9319,8.56397,349.15291018164925,0.308716405,-1.8274,-9.1372,124.16291,-1.936,-9.842,10.30287,NaN,NaN,402,NaN,402,NaN,NaN
GQWQMGBRLRDLRC-UHFFFAOYSA-N,OCCCNc1cc2nc3ccccc3nc2c2c1nccc2,OCCCNc1cc2nc3ccccc3nc2c2c1nccc2,372.3,0.238663598,-0.4927,-7.4549,1.00096,405.3095730810842,0.473860138,-1.3359,-7.7643,36.44960,-1.461,-8.268,2.97945,NaN,NaN,468.0,7400.0,451.0,4600.0,NaN
XUJLTGGMKFCUHT-UHFFFAOYSA-N,CNCc1nc2c([nH]1)ccc(c2)Cl,CNCc1nc2c([nH]1)ccc(c2)Cl,255.4,0.068159499,1.2041,-8.3262,5.86708,303.5852066736133,0.113985052,-0.0343,-8.283,146.53244,-0.53,-9.139,5.87701,NaN,NaN,281,NaN,281,NaN,NaN
ZQYHJVIMAOMRKH-UHFFFAOYSA-N,c1ncc(cn1)c1ccc(s1)c1cccs1,c1ncc(cn1)c1ccc(s1)c1cccs1,299.7,0.847567244,-0.0577,-8.0628,3.46415,373.1092338414194,0.632532734,-0.6464,-7.5728,72.28629,-1.326,-9.087,3.16812,320.5631072969451,0.7318544963,346.0,NaN,320.6,NaN,NaN
OGOOBRWCZLKZSV-UHFFFAOYSA-N,c1ccc2c(c1)c1ccccc1c1c2scc1,c1ccc2c(c1)c1ccccc1c1c2scc1,299.3,0.035480377,0.5097,-7.9312,0.51947,348.172418998887,0.238994709,-0.4552,-7.5344,102.57771,-0.962,-8.554,0.51523,NaN,NaN,495.0,NaN,262.0,NaN,NaN
IHNTZQIMEWDJOZ-UHFFFAOYSA-N,CCOC(=O)c1nc[nH]c1F,CCOC(=O)c1nc[nH]c1F,215.9,0.002076741,1.6554,-9.1191,5.04066,293.7318133274192,0.001382015,-0.7112,-9.2188,42.26275,-0.414,-10.122,5.38853,NaN,NaN,235,NaN,235,NaN,NaN
IMDGTUJEDZNAJG-UHFFFAOYSA-N,O=C1CCC(=O)c2c1c1nc3c(nc1c1c2cccc1)ccc1c3cnnc1,O=C1CCC(=O)c2c1c1nc3c(nc1c1c2cccc1)ccc1c3cnnc1,384.1,0.010696804,-1.6017,-8.8776,5.84897,418.72407431781045,0.650025428,-2.0605,-8.2897,83.45532,-2.226,-9.495,6.15797,NaN,NaN,404.0,NaN,274.0,NaN,DMF
QASRWDGDVZIOIS-UHFFFAOYSA-N,Clc1c2c(Cl)c(Cl)c3c4c2c2c(c1Cl)c(Cl)c(c1c2c2c4c(c(c3Cl)Cl)c(Cl)c(c2c(c1Cl)Cl)Cl)Cl,Clc1c2c(Cl)c(Cl)c3c4c2c2c(c1Cl)c(Cl)c(c1c2c2c4c(c(c3Cl)Cl)c(Cl)c(c2c(c1Cl)Cl)Cl)Cl,405.6,7.1578e-05,-1.5422,-8.4045,0.00027,449.87009581097124,3.914e-06,-2.8687,-9.2568,0.04900,-2.792,-9.383,0.0003,NaN,NaN,860,NaN,860,NaN,NaN
BIHNCRGVFZCVDU-UHFFFAOYSA-N,CCCCCCCCCCn1ccc(=CN=Nc2ccc(cc2)CC2SC(=S)N(C2=O)c2ccc(cc2)O)c2c1cccc2,Cn1ccc(=CN=Nc2ccc(cc2)CC2SC(=S)N(C2=O)c2ccc(cc2)O)c2c1cccc2,425.1,0.107446668,-0.6114,-7.1302,7.20838,502.16362254152966,0.16657835,-1.2982,-7.0805,391.80679,-1.08,-7.784,6.85199,NaN,NaN,564.0,NaN,520.0,NaN,THF
GFFGJBXGBJISGV-UHFFFAOYSA-N,Nc1ncnc2c1[nH]cn2,Nc1ncnc2c1[nH]cn2,241.1,0.044738396,1.0574,-8.7396,7.06431,312.6965911866423,0.192760232,-0.3503,-8.4133,11.80465,-0.721,-9.27,7.80095,NaN,NaN,260.0,NaN,260.0,NaN,NaN
COEMBTIAVIXBPB-UHFFFAOYSA-N,OC1=C(C(c2ccccc2)Nc2ccccc2)C(=O)c2c(C1=O)cccc2,OC1=C(C(c2ccccc2)Nc2ccccc2)C(=O)c2c(C1=O)cccc2,425.3,0.00140278,-1.3755,-7.603,3.29970,449.38092934216627,0.007104638,-2.2785,-8.0699,55.53732,-1.954,-8.263,4.77661,NaN,NaN,462,2754.2287033381663,462,2754.2287033381663,NaN
DDQRXSSTXNTRCD-UHFFFAOYSA-N,COC(=O)c1cc2nc3c(nc2cc1C(=O)OC)c1ccccc1c1c3cccc1,COC(=O)c1cc2nc3c(nc2cc1C(=O)OC)c1ccccc1c1c3cccc1,346.0,0.006801339,-0.9783,-8.5291,1.00574,404.64816711979,0.002590241,-1.6295,-8.2664,202.78786,-1.816,-9.303,4.44875,NaN,NaN,402.0,NaN,314.0,NaN,DMF
PFTXKXWAXWAZBP-UHFFFAOYSA-N,c1ccc2c(c1)cc1c(c2)cc2c(c1)cc1c(c2)cc2c(c1)cc1c(c2)cc2c(c1)cccc2,c1ccc2c(c1)cc1c(c2)cc2c(c1)cc1c(c2)cc2c(c1)cc1c(c2)cc2c(c1)cccc2,774.8,0.167426334,-1.6719,-6.0445,0.00028,652.205146793812,0.254122415,-1.7692,-6.1801,0.00859,-2.19,-7.387,0.00093,NaN,NaN,NaN,NaN,NaN,NaN,NaN
BZKPWHYZMXOIDC-UHFFFAOYSA-N,CC(=O)Nc1nnc(s1)S(=O)(=O)N,CC(=O)Nc1nnc(s1)S(=O)(=O)N,245.7,0.007921746,0.0325,-9.7541,2.50649,327.6538012830435,0.000332201,-1.6692,-9.9529,114.51585,-1.792,-9.928,2.72426,NaN,NaN,NaN,NaN,NaN,NaN,NaN
MHTPESFJWCJELK-UHFFFAOYSA-N,c1ccc(cc1)n1c2ccc(cc2c2c1cccc2)c1ccc2c(c1)c1ccccc1n2c1ccccc1,c1ccc(cc1)n1c2ccc(cc2c2c1cccc2)c1ccc2c(c1)c1ccccc1n2c1ccccc1,291.2,0.060679786,0.8963,-7.2371,2.29826,332.57563949974156,0.086430319,0.0141,-7.3588,1.61699,-0.46,-7.993,0.98053,NaN,NaN,303,NaN,303,NaN,NaN
MNCYZEAYMZEOCM-UHFFFAOYSA-N,c1ccc2c(c1)n(c1ccc(s1)n1c3ccccc3c3c1cccc3)c1c2cccc1,c1ccc2c(c1)n(c1ccc(s1)n1c3ccccc3c3c1cccc3)c1c2cccc1,280.5,0.092279781,0.705,-7.8865,1.06078,343.73218299280194,0.441348998,-0.086,-7.5477,16.09541,-0.944,-8.169,0.65394,NaN,NaN,292.0,NaN,252.0,NaN,NaN
KYZYFDAAIWWSSO-UHFFFAOYSA-N,CCOC(=O)CCCC1N(C)c2c(C1(C)C)c1ccccc1cc2,CCOC(=O)C1N(C)c2c(C1(C)C)c1ccccc1cc2,321.4,0.08620696,0.7846,-7.2571,2.08576,336.00053768429177,0.046997359,-0.1384,-7.562,60.98972,-0.484,-8.082,1.65302,NaN,NaN,307.0,NaN,217.0,NaN,NaN
NQMDHCDEGYWEGW-UHFFFAOYSA-N,CONc1c(cc(cc1[N+](=O)[O-])C(=O)OC(C)C)[N+](=O)[O-],CONc1c(cc(cc1[N+](=O)[O-])C(=O)OC(C)C)[N+](=O)[O-],328.7,0.093666345,-0.967,-9.0123,2.32006,467.51206035257786,0.028687802,-3.1484,-9.7659,144.11344,-1.803,-9.828,2.57572,NaN,NaN,391,6309.57344480193,391,6309.57344480193,methanol
WOOSBMKYYZFLDP-QWHCGFSZSA-N,CCC[C@H]([C@@H](c1ccccc1)C[N+](=O)[O-])C=O,CCC[C@H]([C@@H](c1ccccc1)C[N+](=O)[O-])C=O,299.8,0.000155258,0.3976,-9.4383,3.82446,420.14299696883654,0.000151998,-2.5143,-9.0291,144.80469,-0.165,-9.923,4.02643,NaN,NaN,NaN,NaN,NaN,NaN,NaN
QOLFLGLYKWYNKM-UHFFFAOYSA-N,Clc1ccc(cc1)c1cc(n(n1)Cc1ccc(cc1)C(C)(C)C)c1nnc(o1)COc1ccc(cc1)Cl,Clc1ccc(cc1)c1cc(n(n1)Cc1ccc(cc1)C(C)(C)C)c1nnc(o1)COc1ccc(cc1)Cl,256.6,0.654598254,0.3619,-8.3822,2.72452,337.1884645240785,0.226189581,-1.1306,-8.2808,474.14488,-1.183,-9.148,3.7385,NaN,NaN,263,39600,263,39600,DCM
NGXFYMZVUKZEMQ-UHFFFAOYSA-N,CC(=O)Nc1nc(c(s1)c1ccccc1)c1ccccc1,CC(=O)Nc1nc(c(s1)c1ccccc1)c1ccccc1,285.8,0.379944219,0.3914,-7.9693,3.86362,354.84887923727433,0.280077284,-0.5434,-7.7385,169.90619,-1.03,-8.791,3.26228,NaN,NaN,358.1,NaN,358.1,NaN,NaN
OOALVFTWXXTRFY-OAHLLOKOSA-N,O[C@@H](c1ccc(cc1)C(F)(F)F)C#Cc1ccccc1,O[C@@H](c1ccc(cc1)C(F)(F)F)C#Cc1ccccc1,245.0,0.263427976,0.5763,-8.9362,3.33471,326.18836728625007,0.006941485,-0.0562,-8.4231,276.69126,-0.75,-9.74,3.94123,NaN,NaN,NaN,NaN,NaN,NaN,NaN
IQRZRZYKNJFNEA-UHFFFAOYSA-N,COc1cccc(c1O)c1nc2n(c1Cc1ccccc1)cccc2,COc1cccc(c1O)c1nc2n(c1Cc1ccccc1)cccc2,293.6,0.219509971,0.4992,-7.7276,5.98284,374.91441912761917,0.255167731,-0.447,-7.359,94.53814,-0.794,-8.363,5.20395,NaN,NaN,NaN,NaN,NaN,NaN,NaN
SFHLRCGRPZVJLH-UHFFFAOYSA-N,CCOc1c(C(=O)OC)c(c2n1nccc2)C(=O)OC,CCOc1c(C(=O)OC)c(c2n1nccc2)C(=O)OC,345.7,0.122104852,-0.0209,-7.9947,2.73774,400.7246231593525,0.215701709,-1.2394,-8.0394,49.34412,-1.2,-9.02,4.02221,NaN,NaN,431.0,NaN,343.0,NaN,Cyclohexane
VMXIXDNPAHBYAP-UHFFFAOYSA-N,COc1cccc(c1O)C=NNc1nc(NN=Cc2cccc(c2O)OC)nc(n1)N,COc1cccc(c1O)C=NNc1nc(NN=Cc2cccc(c2O)OC)nc(n1)N,295.3,1.310364449,0.6398,-7.7033,2.89725,310.426135216584,0.702165391,-0.2763,-8.1129,78.08500,-0.602,-8.499,5.24043,302.09101166911813,1.2367806517,315,39600,315,39600,NaN
NIBNUTFPMLLFGJ-UHFFFAOYSA-N,CCCCCCCOc1c(ccc2c1ccc(c2OCCCCCCC)C(=Cc1ccc(cc1)C#N)C#N)C(=Cc1ccc(cc1)C#N)C#N,COc1c(ccc2c1ccc(c2OC)C(=Cc1ccc(cc1)C#N)C#N)C(=Cc1ccc(cc1)C#N)C#N,308.4,0.024529727,-0.8031,-8.5913,2.75184,341.64838359190867,0.027876942,-0.8256,-8.0789,9.78604,-1.532,-9.282,5.45205,NaN,NaN,412.0,NaN,361.0,NaN,dichloromethane
YCANAXVBJKNANM-UHFFFAOYSA-N,O=C1c2ccccc2C(=O)c2c1cccc2[N+](=O)[O-],O=C1c2ccccc2C(=O)c2c1cccc2[N+](=O)[O-],348.0,3.694e-06,-1.4752,-10.0457,3.86503,428.2701153903408,5.958e-06,-2.2995,-9.9175,100.47931,-2.061,-10.573,4.2021,NaN,NaN,325,NaN,325,NaN,NaN
RGAYYSAUTOWAMJ-PWHSHALESA-N,OC[C@H]1O[C@H](C[C@@]1(O)n1nnc(c1)COc1ccc2c(c1)oc(=O)cc2C)n1cc(C)c(=O)[nH]c1=O,OC[C@H]1O[C@H](C[C@@]1(O)n1nnc(c1)COc1ccc2c(c1)oc(=O)cc2C)n1cc(C)c(=O)[nH]c1=O,277.6,0.339207173,0.1445,-8.5118,5.74481,327.0487955829693,0.377220001,-1.1476,-8.7414,126.75686,-1.045,-9.338,5.41957,NaN,NaN,319,NaN,319,NaN,NaN
KSQAVLQWRSONDD-UHFFFAOYSA-N,CCN(c1ccc(c(c1)O)c1nc2c([nH]1)ccc(c2C(=O)OC)C(=O)OC)CC,CCN(c1ccc(c(c1)O)c1nc2c([nH]1)ccc(c2C(=O)OC)C(=O)OC)CC,299.1,1.050258349,0.4102,-7.3534,7.01485,369.5505168569409,0.677288466,-0.8268,-7.7216,286.66828,-0.939,-8.25,9.03882,314.49710323729664,1.0681367539,515.0,NaN,385.0,NaN,NaN
FXCXPBUSSDEKHP-UHFFFAOYSA-N,O=c1oc2ccccc2cc1N=NC1(Cc2cc(ccc2OC1=O)c1ccccc1)C(=O)C,O=c1oc2ccccc2cc1N=NC1(Cc2cc(ccc2OC1=O)c1ccccc1)C(=O)C,452.3,0.001738978,-1.3551,-8.3344,7.10642,501.75717687375015,0.000387325,-2.1906,-8.1965,131.71921,-1.782,-9.276,7.79799,NaN,NaN,312,NaN,312,NaN,NaN
AUJKKUJAUUHPIQ-UHFFFAOYSA-N,CCCCCCn1c2ccc(cc2c2c1cccc2)C=C(c1ccc(s1)C=C1C(=O)NC(=O)NC1=O)C#N,Cn1c2ccc(cc2c2c1cccc2)C=C(c1ccc(s1)C=C1C(=O)NC(=O)NC1=O)C#N,326.0,0.706612121,-1.2993,-8.0426,8.35988,465.9308470706639,0.142638819,-1.7393,-7.8329,177.39224,-1.93,-8.481,6.77912,NaN,NaN,524,41500,524,41500,chloroform
VUGIJUKMUSPJQE-UHFFFAOYSA-N,Cc1nn(c2c1c1nc3c(n1c(c2)c1ccccc1)cc(cc3)C#Cc1ccccc1)c1ccccc1,Cc1nn(c2c1c1nc3c(n1c(c2)c1ccccc1)cc(cc3)C#Cc1ccccc1)c1ccccc1,310.4,0.608069463,0.2902,-7.3737,4.93722,372.4367630084219,0.184553313,-0.5434,-7.2531,93.67551,-0.91,-8.423,5.57689,NaN,NaN,302.0,NaN,209.0,NaN,NaN
XTZWPAISJPJALU-UHFFFAOYSA-N,Cc1c(=O)n2c(c1c1ccccc1)cc1n(c2=O)c(C)cc1C,Cc1c(=O)n2c(c1c1ccccc1)cc1n(c2=O)c(C)cc1C,354.6,0.670016405,-0.564,-7.4221,6.22106,436.256855754763,0.471395024,-1.2997,-7.4304,113.51445,-1.399,-8.28,5.10535,NaN,NaN,437.0,NaN,278.0,NaN,Cyclohexane
YDDUFDGRGCRQQB-UHFFFAOYSA-N,N#CCc1cccc(c1)C12OOC2(C(C)(C)C)C(CO1)(C)C,N#CCc1cccc(c1)C12OOC2(C(C)(C)C)C(CO1)(C)C,260.8,0.000120967,0.9442,-9.2193,1.65488,278.6788006417255,0.000993796,0.2478,-8.9974,69.12391,-0.377,-9.666,0.85642,NaN,NaN,702,NaN,702,NaN,NaN
TXPMKPGLGMOQQO-UHFFFAOYSA-N,Nc1ccc(cc1)Nc1nc(nc(n1)Nc1cccc2c1cccc2)Nc1cccc2c1cccc2,Nc1ccc(cc1)Nc1nc(nc(n1)Nc1cccc2c1cccc2)Nc1cccc2c1cccc2,306.5,0.177193074,0.4745,-7.2871,1.79728,319.62928178784136,0.049918736,-0.1717,-7.6843,85.43852,-0.689,-8.22,2.60952,NaN,NaN,295,46773.51412871981,295,46773.51412871981,CH 2 Cl 2
BUZJCKHSOGRPLT-UHFFFAOYSA-N,COc1ccc2c(c1)C(C)(C)C1(N2C)C=Cc2c(O1)c(cc1c2cccc1)c1nc(c(o1)c1ccccc1)c1ccccc1,COc1ccc2c(c1)C(C)(C)C1(N2C)C=Cc2c(O1)c(cc1c2cccc1)c1nc(c(o1)c1ccccc1)c1ccccc1,329.5,0.195979582,0.0139,-7.3007,2.01450,384.5663722255076,0.361359219,-0.7079,-7.1842,23.16757,-1.128,-8.011,2.7959,NaN,NaN,309,NaN,309,NaN,Toluene
IIBBFGMVMNZMGA-UHFFFAOYSA-N,COc1ccc(cc1)c1oc2ccccc2c(=O)c1O,COc1ccc(cc1)c1oc2ccccc2c(=O)c1O,304.2,0.636192507,-0.094,-7.8637,2.90939,359.89607664877695,0.012932857,-1.0991,-8.2275,51.30977,-0.967,-8.644,2.44573,NaN,NaN,203,16400,203,16400,NaN
QWNRHWNQHLYNSX-UHFFFAOYSA-N,O=NN1C(c2ccc(cc2)OC)C2CCCC(C1c1ccc(cc1)OC)C2=O,O=NN1C(c2ccc(cc2)OC)C2C(C1c1ccc(cc1)OC)C2=O,422.3,0.004423863,0.515,-8.1457,2.09749,528.9428259620464,0.001223621,-1.1476,-8.4281,34.54691,-0.071,-8.894,2.77212,NaN,NaN,440,NaN,440,NaN,KBr
FTBVVLLQTUFMFZ-UHFFFAOYSA-N,N#CC(=Cc1ccc(cc1)N(c1ccccc1)c1ccccc1)c1ccc(cc1)c1cc(C)cc(c1)C,N#CC(=Cc1ccc(cc1)N(c1ccccc1)c1ccccc1)c1ccc(cc1)c1cc(C)cc(c1)C,339.0,0.91158682,-0.1916,-7.3695,6.64098,341.7425534881578,0.304395046,-0.3445,-7.3989,122.19965,-0.85,-8.131,5.43455,NaN,NaN,413.0,NaN,307.0,NaN,Cyclohexane
JPDUPGAVXNALOL-UHFFFAOYSA-N,c1ccc(cc1)N(c1ccccc1)c1ccc(cc1)N(c1ccccc1)c1ccccc1,c1ccc(cc1)N(c1ccccc1)c1ccc(cc1)N(c1ccccc1)c1ccccc1,306.2,0.508100554,1.0717,-6.855,0.00098,339.03253597348555,0.384859111,0.3896,-6.9718,0.02992,-0.238,-7.622,0.00556,NaN,NaN,NaN,NaN,NaN,NaN,NaN
UIMOXRDVWDLOHW-UHFFFAOYSA-N,CCN(c1ccc2c(c1)oc(=O)cc2C(F)(F)F)CC,CCN(c1ccc2c(c1)oc(=O)cc2C(F)(F)F)CC,303.0,0.565551962,-0.1079,-7.8353,7.09870,374.91441912761917,0.474197511,-1.4099,-8.1827,296.09128,-1.249,-8.588,7.90946,NaN,NaN,401,NaN,401,NaN,dichloromethane
XDLNYSMGOACQAQ-UHFFFAOYSA-N,Clc1ccc2c(c1)sc(n2)N=Nc1ccc2c1ccccc2,Clc1ccc2c(c1)sc(n2)N=Nc1ccc2c1ccccc2,489.2,0.022275007,-1.1147,-7.5444,6.37138,579.6362711804753,0.077954373,-1.761,-7.4576,334.31584,-1.959,-8.555,6.54508,NaN,NaN,494.0,NaN,226.0,NaN,NaN
VGAWTDJZPLKGHK-UHFFFAOYSA-N,CCOC(=O)c1c(N)sc(c1c1ccccc1)N=Nc1ccc(cc1)C,CCOC(=O)c1c(N)sc(c1c1ccccc1)N=Nc1ccc(cc1)C,443.1,0.001335037,-0.2705,-7.3979,0.30343,543.5519439083895,0.000161299,-1.2552,-7.5266,217.95122,-1.056,-8.338,0.73444,NaN,NaN,469.0,NaN,451.0,NaN,DMSO