inchikey,smi_pre,smi_post,lambda_sTDA (nm),f1_sTDA,lumo_dft,homo_dft,dmom_dft (D),lambda_z (nm),f1_z,lumo_z,homo_z,dmom_z (D),lumo_mopac,homo_mopac,dmom_mopac (D),lambda_tddft (nm),f1_tddft,lambda_exp_max (nm),epsilon_exp_max ,lambda_exp_min (nm),epsilon_exp_min ,solvent
GSUMVJCLYDFOHO-UHFFFAOYSA-N,CCCCCc1ccc(cc1)Nc1nc(C#N)c(nc1CC(C1=Nc2c(N(C1C)CC)cc(n2C#N)C#N)O)C#N,Cc1ccc(cc1)Nc1nc(C#N)c(nc1CC(C1=Nc2c(N(C1C)CC)cc(n2C#N)C#N)O)C#N,351.8,0.238266024,-0.8498,-8.3184,8.01552,460.9078007639541,0.165338155,-1.5639,-7.7578,44.97288,-1.628,-8.584,7.58748,NaN,NaN,533,NaN,533,NaN,NaN
ZFSXZJXLKAJIGS-UHFFFAOYSA-N,O=C(Nc1ccc(c(c1)C(F)(F)F)Cl)Nc1ccc(cc1)Cl,O=C(Nc1ccc(c(c1)C(F)(F)F)Cl)Nc1ccc(cc1)Cl,256.9,0.241325755,0.623,-8.3915,6.92384,287.2664467226684,0.005821629,-0.5849,-8.9923,203.21899,-1.103,-9.266,3.84418,NaN,NaN,382.0,71500.0,297.0,71500.0,NaN
BYWXSQJAHVTZBH-UHFFFAOYSA-N,CCn1c2ccc(cc2c2c1ccc(c2)c1ccc(s1)c1nc2c(n1c1ccccc1)cccc2)c1cccs1,CCn1c2ccc(cc2c2c1ccc(c2)c1ccc(s1)c1nc2c(n1c1ccccc1)cccc2)c1cccs1,324.7,1.364090584,0.2618,-7.2219,5.00005,355.5612228434289,0.611738865,-0.3762,-7.5042,77.01339,-0.846,-8.289,4.89217,339.61758843301135,1.1972327063,372.0,36300.0,310.0,31600.0,DCM
JBNOVHJXQSHGRL-UHFFFAOYSA-N,Nc1ccc2c(c1)oc(=O)cc2C(F)(F)F,Nc1ccc2c(c1)oc(=O)cc2C(F)(F)F,290.8,0.434327842,-0.1744,-8.2053,6.45767,357.40616432834724,0.431447633,-1.4955,-8.5406,130.99627,-1.476,-9.106,6.19569,NaN,NaN,360,NaN,360,NaN,dichloromethane
NYZZGKRRBBQBHL-UHFFFAOYSA-N,Oc1cc(ccc1N=Cc1c(O)ccc2c1cccc2)[N+](=O)[O-],Oc1cc(ccc1N=Cc1c(O)ccc2c1cccc2)[N+](=O)[O-],346.4,0.827166371,-0.9653,-8.2904,7.75005,422.7214401824196,0.053455605,-2.3543,-8.356,229.46821,-1.333,-8.739,4.24183,365.00292336681423,0.6515513271,472.0,NaN,366.0,NaN,NaN
VQBBVWKBRZFJBB-UHFFFAOYSA-N,n1nnc(c(n1)c1cccs1)c1cccs1,n1nnc(c(n1)c1cccs1)c1cccs1,387.9,0.016999825,-0.8472,-8.7545,6.83736,413.2806613516789,0.18854904,-1.2849,-7.9935,81.84716,-1.948,-9.349,7.03721,NaN,NaN,923,NaN,923,NaN,dichloromethane
SXGQWLFGANAPEX-UHFFFAOYSA-N,CSCC(=O)CC(c1ccccc1Cl)O,CSCC(=O)CC(c1ccccc1Cl)O,271.5,0.009958562,1.0341,-8.8167,1.76473,328.26104952476476,0.000550307,0.0859,-9.1523,96.74218,-0.342,-8.901,1.84664,NaN,NaN,NaN,NaN,NaN,NaN,NaN
BATLLMJRCYEJML-UHFFFAOYSA-N,COc1ccc2c(c1)sc(n2)N=Nc1c(N)nc2n(c1N)nc(c2N=Nc1nccs1)N,COc1ccc2c(c1)sc(n2)N=Nc1c(N)nc2n(c1N)nc(c2N=Nc1nccs1)N,433.4,0.00840253,-1.0946,-7.4562,5.14669,521.599488453949,0.004213238,-1.7653,-7.5796,169.95799,-1.754,-8.438,6.26991,NaN,NaN,521.0,NaN,520.0,NaN,NaN
OXZKROMWFXHLSV-ACAXCVFMSA-N,Oc1ccc2c3c1C(=O)C1OC1[C@H]3[C@]1(c3c2ccc(c3C(=O)C=C1)O)O,Oc1ccc2c3c1C(=O)C1OC1[C@H]3[C@]1(c3c2ccc(c3C(=O)C=C1)O)O,341.4,0.022532012,-0.5869,-7.984,2.57726,378.577705054973,7.6477e-05,-1.2871,-8.229,46.33211,-1.472,-9.051,1.46284,NaN,NaN,NaN,NaN,NaN,NaN,NaN
FKZKEXXXQRCICN-UHFFFAOYSA-N,O=c1cc2c(cc1Nc1ccccc1Nc1ccccc1)nc(nn2c1ccccc1)c1ccccc1,O=c1cc2c(cc1Nc1ccccc1Nc1ccccc1)nc(nn2c1ccccc1)c1ccccc1,409.6,0.098008435,-0.8408,-7.4725,1.74687,490.2498948418492,0.078102312,-1.8653,-7.647,54.49437,-1.505,-8.11,1.16478,NaN,NaN,431.0,NaN,430.0,NaN,NaN
FNJSWIPFHMKRAT-UHFFFAOYSA-N,COC(=O)c1ccccc1C(=O)O,COC(=O)c1ccccc1C(=O)O,246.5,0.036231404,0.2753,-9.738,0.31111,287.06690994559773,0.009126355,-0.9274,-9.8215,59.70777,-1.013,-10.503,3.14012,NaN,NaN,541,NaN,541,NaN,NaN
FQZLCAJWOLICTN-UHFFFAOYSA-N,Clc1ccc(cc1)c1nn(c(c1N=Nc1ccc(cc1)S(=O)(=O)O)Nc1nc(Cl)nc(n1)Cl)c1ccccc1,Clc1ccc(cc1)c1nn(c(c1N=Nc1ccc(cc1)S(=O)(=O)O)Nc1nc(Cl)nc(n1)Cl)c1ccccc1,416.5,0.007732728,-1.2911,-8.5761,4.82670,513.8176477642091,0.005821298,-1.8728,-8.6658,269.66860,-1.882,-9.427,4.90665,NaN,NaN,380,NaN,380,NaN,NaN
VHNQIURBCCNWDN-UHFFFAOYSA-N,Nc1cccc(n1)N,Nc1cccc(n1)N,256.5,0.119522351,1.973,-7.5466,0.09962,308.80248668867665,0.153639452,0.4937,-7.8394,19.66527,0.447,-8.409,1.09379,NaN,NaN,389.0,60200,389.0,46800,THF
QBNYALHVAGUOAF-UHFFFAOYSA-N,ON=C1CC(=C(C1=NO)c1cc(sc1C)C)c1cc(sc1C)C,ON=C1CC(=C(C1=NO)c1cc(sc1C)C)c1cc(sc1C)C,288.5,0.24299509,0.3701,-7.7328,1.05501,371.6552709997112,0.098801353,-0.9927,-7.6026,45.85878,-0.561,-8.508,2.04963,NaN,NaN,324.0,NaN,237.0,NaN,NaN
LQSDEIPBGNNCPG-UHFFFAOYSA-N,CCCCC(Cn1c2ccc(cc2c2c1cccc2)c1sc(c2c1cccc2)c1cccs1)CC,C(Cn1c2ccc(cc2c2c1cccc2)c1sc(c2c1cccc2)c1cccs1)CC,376.5,0.79664751,0.0274,-6.9521,2.74201,466.80797592433606,0.398991328,-0.7374,-6.7984,332.41482,-1.142,-8.077,2.84374,NaN,NaN,465,NaN,465,NaN,CH 2 Cl
GBGZUMSSFOEFCK-UHFFFAOYSA-N,N#Cc1ccc2c(c1)c1cc(ccc1n2c1ccccc1)c1ccc2c(c1)c1ccccc1n2c1ccccc1,N#Cc1ccc2c(c1)c1cc(ccc1n2c1ccccc1)c1ccc2c(c1)c1ccccc1n2c1ccccc1,294.0,0.013434353,0.4528,-7.4537,8.07824,335.6367038589704,0.054380984,-0.3181,-7.5282,97.85404,-0.81,-8.179,5.87478,NaN,NaN,301,NaN,301,NaN,NaN
APCLPJXAOPUWQB-UHFFFAOYSA-N,CCOC(=O)C=c1sc2=NC3=C(C(n2c1=O)c1cccc(c1)Cl)CCCC3=Cc1cccc(c1)Cl,CCOC(=O)C=c1sc2=NC3=C(C(n2c1=O)c1cccc(c1)Cl)C3=Cc1cccc(c1)Cl,394.8,0.272947874,-1.2272,-7.4316,5.22377,514.0306733229837,0.140961032,-2.0212,-7.0925,13.57608,-1.928,-8.556,4.37866,NaN,NaN,315.44,NaN,315.44,NaN,NaN
XMYLZQBPVAQRQR-UHFFFAOYSA-N,O=C(c1cccc(n1)C(=O)CC(=O)c1ccc(cc1)C)CC(=O)c1ccc(cc1)C,O=C(c1cccc(n1)C(=O)CC(=O)c1ccc(cc1)C)CC(=O)c1ccc(cc1)C,308.9,9.367e-06,-0.1318,-9.1708,5.69765,364.6594070750108,0.000501831,-1.0131,-9.1335,194.69041,-1.061,-9.666,2.89293,NaN,NaN,340,38904.51449942805,340,38904.51449942805,NaN
WHYSDEAUKYVHBQ-UHFFFAOYSA-N,OC(=O)c1ccc(cc1)N=Nc1ccc(c2c1cccn2)O,OC(=O)c1ccc(cc1)N=Nc1ccc(c2c1cccn2)O,451.7,0.0026576,-1.0209,-8.0145,3.49381,533.9543428316265,0.00573054,-1.7566,-8.1495,58.88275,-1.693,-9.009,2.08417,NaN,NaN,413.0,NaN,397.0,NaN,DMSO
QXORLTLYTFIVND-UHFFFAOYSA-N,CCc1ccc2c(c1)C(=C(N(S2(=O)=O)C)CN1C(=O)c2c(C1=O)cccc2)I,CCc1ccc2c(c1)C(=C(N(S2(=O)=O)C)CN1C(=O)c2c(C1=O)cccc2)I,278.1,0.125093003,-0.2437,-8.7626,2.17641,NaN,NaN,NaN,Nan,NaN,-1.319,-8.216,0.41593,NaN,NaN,NaN,NaN,NaN,NaN,NaN
WSAPJZLOOWBHNY-UHFFFAOYSA-N,CC(=O)Oc1ccc(cc1)N=NC(=NNc1ccccc1)c1ccccc1,CC(=O)Oc1ccc(cc1)N=NC(=NNc1ccccc1)c1ccccc1,466.1,0.038168064,-0.8336,-7.4008,3.63293,563.5645382068348,0.007559832,-1.5342,-7.6664,122.55260,-1.303,-8.298,4.42866,NaN,NaN,371,NaN,371,NaN,NaN
FPWVCFKLUYGKLJ-UHFFFAOYSA-N,CC(c1ccc(cc1)C=Cc1sccc1c1ccsc1C=Cc1ccc(cc1)C(C)(C)C)(C)C,CC(c1ccc(cc1)C=Cc1sccc1c1ccsc1C=Cc1ccc(cc1)C(C)(C)C)(C)C,352.8,0.256627484,-0.0387,-7.4458,0.97087,407.30682787616183,0.262454627,-0.391,-7.1158,313.73668,-0.84,-8.38,0.77053,NaN,NaN,290,NaN,290,NaN,NaN
DIVMHEUIWWZXKE-UHFFFAOYSA-N,O=C1c2c(cccc2C(=O)c2c1cccc2)N=Nc1cccc2c1C(=O)c1ccccc1C2=O,O=C1c2c(cccc2C(=O)c2c1cccc2)N=Nc1cccc2c1C(=O)c1ccccc1C2=O,454.3,0.019050556,-1.1076,-8.7443,1.03380,492.1961032374103,0.00271991,-1.8684,-9.067,48.34526,-1.612,-9.181,0.82581,NaN,NaN,435,NaN,435,NaN,NaN
ZMEZUGLXIQZEFB-UHFFFAOYSA-N,CN(c1cccc2c1cccc2C#Cc1cccc2c1cccc2C#Cc1cccc2c1cccc2C#Cc1cccc2c1cccc2N(C)C)C,CN(c1cccc2c1cccc2C#Cc1cccc2c1cccc2C#Cc1cccc2c1cccc2C#Cc1cccc2c1cccc2N(C)C)C,359.4,2.501706694,-0.4089,-7.3767,1.06059,384.5663722255076,1.433249744,-0.6877,-7.1536,10.02840,-1.097,-8.392,0.36479,365.5517675774374,2.3234625999,527.0,29700,375.0,29700,NaN
RMUQOJCNEZROHQ-UHFFFAOYSA-N,Sc1nnn(c1)N=Nc1ccc(c2c1cccn2)O,Sc1nnn(c1)N=Nc1ccc(c2c1cccn2)O,363.4,0.009123866,-0.9725,-8.2503,4.87571,459.3708721952711,0.05059358,-1.7137,-8.1958,162.45093,-1.904,-8.714,2.63402,NaN,NaN,496,NaN,496,NaN,Methanol
GDPQDWYHZBUJTA-UHFFFAOYSA-N,CC(=O)Nc1ccc(cc1)S(=O)(=O)Nc1ccccc1,CC(=O)Nc1ccc(cc1)S(=O)(=O)Nc1ccccc1,250.0,0.2753638,0.5496,-8.8177,7.54771,302.76971527595526,0.000579328,-0.5467,-8.7217,147.18025,-0.708,-8.701,7.79147,NaN,NaN,204,NaN,204,NaN,NaN
ONKMKMVWEILESQ-UHFFFAOYSA-N,Clc1ccc2c(c1)nc1n2c(cc2c1cn(n2)c1ccccc1)c1ccccc1,Clc1ccc2c(c1)nc1n2c(cc2c1cn(n2)c1ccccc1)c1ccccc1,284.9,0.639181193,0.2438,-7.8912,4.24059,358.3358335419181,0.634815779,-0.885,-7.8352,231.74914,-1.177,-8.632,4.61858,NaN,NaN,336.0,NaN,245.0,NaN,NaN
MREPJQZHXSDMKL-UHFFFAOYSA-N,OC(=O)c1ccc(cc1)N=Cc1ccccc1,OC(=O)c1ccc(cc1)N=Cc1ccccc1,296.1,0.517010375,-0.2338,-8.6214,2.98588,337.1884645240785,0.000837088,-0.5959,-8.7814,150.18418,-0.804,-9.507,4.10721,NaN,NaN,295.0,NaN,200.0,NaN,NaN
BPRGBMCFKTVXLN-UHFFFAOYSA-N,COc1ccc(s1)C#Cc1sc(c(c1[N+](=O)[O-])[N+](=O)[O-])C#Cc1ccc(s1)OC,COc1ccc(s1)C#Cc1sc(c(c1[N+](=O)[O-])[N+](=O)[O-])C#Cc1ccc(s1)OC,374.2,1.606609374,-0.9838,-7.6076,6.37718,618.6836247779623,0.336561235,-2.4594,-7.6201,17.26977,-2.062,-8.759,7.74458,417.44114006006345,1.2911910016,460,9700,460,9700,CH2Cl2 ( c 2 × 10–5 mol / l )
PFERMWSITMNKML-UHFFFAOYSA-N,O=CNc1ccc(cc1)C=Cc1nc2cc(OCCC(C)C)c(cc2nc1C=Cc1ccc(cc1)NC=O)OCCC(C)C,O=CNc1ccc(cc1)C=Cc1nc2cc(OCCC(C)C)c(cc2nc1C=Cc1ccc(cc1)NC=O)OCCC(C)C,349.6,1.025571554,-0.6955,-7.6741,4.76638,389.7648488069904,0.697920715,-1.1403,-7.7589,349.01265,-1.252,-8.787,5.14478,373.78412122170465,0.9014128428,480.0,NaN,420.0,NaN,NaN
WEKZTXOZLWLOPN-UHFFFAOYSA-N,CCCCN(c1ccc(cc1)C1C=CC=CC1(C=Cc1ccccc1)C1=C(C#N)C(=C(C#N)C#N)N(C1=O)CC=C)CCCC,CN(c1ccc(cc1)C1C=CC=CC1(C=Cc1ccccc1)C1=C(C#N)C(=C(C#N)C#N)N(C1=O)CC=C)C,437.6,0.025209456,-1.7754,-7.6018,5.85174,501.75717687375015,0.118633414,-2.2014,-7.7552,106.09899,-2.151,-8.372,7.30715,NaN,NaN,740,NaN,740,NaN,NaN
FCEHBMOGCRZNNI-UHFFFAOYSA-N,c1ccc2c(c1)scc2,c1ccc2c(c1)scc2,260.1,0.071520692,1.0525,-8.2392,0.66649,287.3330206384789,0.005483588,0.0326,-8.2791,67.19644,-0.583,-8.596,0.88826,NaN,NaN,398.0,9852,322.0,10152,NaN
JAZDGAABOJNPTA-UHFFFAOYSA-N,COc1cc(ccc1NC(=O)Nc1cccc(c1)C(F)(F)F)Oc1ncnc2c1n(C)cc2,COc1cc(ccc1NC(=O)Nc1cccc(c1)C(F)(F)F)Oc1ncnc2c1n(C)cc2,257.6,0.766958242,0.9633,-7.9557,7.08031,310.8931755403803,0.437043726,-0.2961,-8.2164,301.07084,-0.684,-8.722,5.54825,NaN,NaN,103,NaN,103,NaN,NaN
OIAQMFOKAXHPNH-UHFFFAOYSA-N,c1ccc(cc1)c1ccccc1c1ccccc1,c1ccc(cc1)c1ccccc1c1ccccc1,253.7,0.127398535,0.9415,-8.3094,0.16372,282.167042342976,0.031724977,0.3091,-8.0303,4.76516,-0.122,-9.168,0.1122,NaN,NaN,691.0,NaN,685.0,NaN,NaN
HHBHDOFLZFBFJD-UHFFFAOYSA-N,N#CC(=Cc1c2ccccc2cc2c1cccc2)c1ccc(cc1)N(c1ccccc1)c1ccccc1,N#CC(=Cc1c2ccccc2cc2c1cccc2)c1ccc(cc1)N(c1ccccc1)c1ccccc1,382.0,0.274228941,-0.5916,-7.3511,5.25263,389.5199447235428,0.175661382,-0.9494,-7.2933,78.59979,-1.327,-8.04,4.69248,NaN,NaN,403.0,NaN,298.0,NaN,THF
OLXGJOJPFBYXJE-UHFFFAOYSA-N,Oc1ccc(cc1)C(c1cc(=O)oc(c1)C(=O)O)(C)C,Oc1ccc(cc1)C(c1cc(=O)oc(c1)C(=O)O)(C)C,280.7,0.281262933,-0.3525,-8.6897,6.24731,317.1762558339823,0.224755214,-1.5846,-8.8259,163.65513,-1.276,-9.372,4.75498,NaN,NaN,222.0,NaN,222.0,NaN,NaN
LGNCIZWOKRCBJS-UHFFFAOYSA-N,O=C(Nc1ccc2c(c1)c(C)nc1c2cccc1)NCCCCCCCCCNC(=O)Nc1ccc2c(c1)c(C)nc1c2cccc1,O=C(Nc1ccc2c(c1)c(C)nc1c2cccc1)NCNC(=O)Nc1ccc2c(c1)c(C)nc1c2cccc1,295.0,0.022636266,0.3494,-8.0263,1.63917,341.36618503717966,0.128058335,-0.4345,-7.8431,106.30915,-0.86,-8.68,1.66654,NaN,NaN,262,NaN,262,NaN,NaN
YOHLIKBMACECLZ-UHFFFAOYSA-N,O=c1oc2ccccc2cc1c1ccc(cc1)c1ccc(cc1)c1cc2ccccc2oc1=O,O=c1oc2ccccc2cc1c1ccc(cc1)c1ccc(cc1)c1cc2ccccc2oc1=O,309.6,1.969029132,-0.4047,-8.077,3.19327,354.84887923727433,1.167489312,-1.0929,-7.9257,50.44735,-1.286,-9.053,0.81143,327.50665137026033,1.8675039083,341,NaN,341,NaN,NaN
FGAFVRPHQZYWHG-UHFFFAOYSA-N,c1ccc(cc1)C1(C=CC2=c3ccc(=C4Sc5c(S4)cccc5)cc3C=CC2O1)c1ccccc1,c1ccc(cc1)C1(C=CC2=c3ccc(=C4Sc5c(S4)cccc5)cc3C=CC2O1)c1ccccc1,410.2,2.370632076,-0.5127,-6.4341,3.13896,418.5827089989995,1.328531713,-0.9192,-6.7487,317.22893,-1.503,-7.547,1.16751,441.9168556074973,1.7571231428,NaN,NaN,NaN,NaN,NaN
AGAZAFNQXWBQIR-UHFFFAOYSA-N,O=C1OC(=NC1=Cc1ccc(cc1)C=Cc1nc2c([nH]1)cccc2)c1ccccc1,O=C1OC(=NC1=Cc1ccc(cc1)C=Cc1nc2c([nH]1)cccc2)c1ccccc1,381.4,2.110151283,-1.1907,-7.6743,5.90885,386.6049217508689,1.38365424,-1.4066,-7.6184,149.86707,-1.66,-8.828,3.2862,NaN,NaN,424.0,54100.0,424.0,47500.0,THF
KSUYWNXMALEALY-UHFFFAOYSA-N,[O-][N+](=O)c1cc2C(=CC=CC=CC=C3C=C(OC(=C3)C(C)(C)C)C(C)(C)C)c3c(c2c(c1)[N+](=O)[O-])c(cc(c3)[N+](=O)[O-])[N+](=O)[O-],[O-][N+](=O)c1cc2C(=CC=CC=CC=C3C=C(OC(=C3)C(C)(C)C)C(C)(C)C)c3c(c2c(c1)[N+](=O)[O-])c(cc(c3)[N+](=O)[O-])[N+](=O)[O-],605.5,0.093569032,-1.8953,-7.1796,8.87679,1152.2695019098853,0.004934415,-3.5996,-7.3374,459.48135,-2.768,-8.247,18.09247,NaN,NaN,779,NaN,779,NaN,Toluene
XLKTVIIUSHNJQW-UHFFFAOYSA-N,CCOC(=O)c1cc2c(n1Cc1ccc(cc1)C)c1[nH]c(=O)c(cc1CC2)S(=O)(=O)c1ccccc1,CCOC(=O)c1cc2c(n1Cc1ccc(cc1)C)c1[nH]c(=O)c(cc1CC2)S(=O)(=O)c1ccccc1,349.9,0.835748652,-0.4667,-7.8845,8.91399,445.8259561506784,0.609579526,-1.8511,-8.1786,227.35121,-1.274,-8.858,8.89102,367.66559815325144,0.6428093493,381,37088,381,37088,NaN
SNBWFCJMQVOFAB-UHFFFAOYSA-N,Cc1ccc2c(c1)[nH]c(n2)c1ccc(cc1)c1ccc(c(c1)C)c1ccc(cc1)c1nc2c([nH]1)cc(cc2)C,Cc1ccc2c(c1)[nH]c(n2)c1ccc(cc1)c1ccc(c(c1)C)c1ccc(cc1)c1nc2c([nH]1)cc(cc2)C,300.0,2.67349813,0.1078,-7.6841,3.10105,357.0973456379714,1.33342072,-0.5497,-7.4771,20.65340,-0.843,-8.628,1.47698,307.91286199085937,2.9004151521,333,NaN,333,NaN,NaN
OLDCRBNKZYRENG-UHFFFAOYSA-N,COC(=O)c1c[nH]c2c1CCc1c2cc(cc1)Cl,COC(=O)c1c[nH]c2c1CCc1c2cc(cc1)Cl,275.7,0.403803587,0.8209,-7.8209,1.59107,346.8089465888214,0.362305061,-0.5516,-7.7854,121.48694,-0.649,-8.747,1.74888,NaN,NaN,NaN,NaN,NaN,NaN,NaN
VQXXYLBCWJZMOP-UHFFFAOYSA-N,C1COc2c(O1)c(sc2)c1ccc(cc1)c1scc2c1OCCO2,C1COc2c(O1)c(sc2)c1ccc(cc1)c1scc2c1OCCO2,302.0,1.055295535,0.5623,-7.3264,4.62765,343.2563632489027,0.709114726,-0.2968,-7.5047,93.79479,-0.71,-8.373,0.00192,319.9261831275209,1.0228261478,511.0,NaN,347.0,NaN,NaN
TUBSDPKUAKEDIT-UHFFFAOYSA-N,COc1ccc(cc1)C=Cc1ccc2c(c1)C(=O)c1c(C2=O)ccc(c1)C=Cc1ccc(cc1)OC,COc1ccc(cc1)C=Cc1ccc2c(c1)C(=O)c1c(C2=O)ccc(c1)C=Cc1ccc(cc1)OC,357.0,0.983121915,-1.007,-7.6842,2.88658,407.84275791284097,0.012144714,-1.7986,-7.9301,30.22151,-1.577,-8.73,2.24304,381.7247321713037,0.8805788389,526.0,NaN,358.0,NaN,NaN
KCXRXFXSPFTSFE-UHFFFAOYSA-N,[O-][N+](=O)c1ccc(cc1)c1nc2CCc3c(c2c2c1c1ccccc1CC2)cccc3,[O-][N+](=O)c1ccc(cc1)c1nc2CCc3c(c2c2c1c1ccccc1CC2)cccc3,318.2,0.002914994,-0.5395,-8.2248,7.28632,424.0225663662916,0.040425206,-2.3299,-7.9396,255.66414,-1.337,-9.029,7.89423,NaN,NaN,353.0,NaN,250.0,NaN,Dimethylsulfoxide
ANUXEEANVIDIGD-UHFFFAOYSA-N,Clc1ccc(cc1)c1cc(n(n1)Cc1ccc(nc1)Cl)c1nnc(o1)c1cccc(c1)Br,Clc1ccc(cc1)c1cc(n(n1)Cc1ccc(nc1)Cl)c1nnc(o1)c1cccc(c1)Br,276.9,1.249029952,-0.2976,-8.5321,2.28803,358.2322981956188,0.544945606,-1.3927,-8.5278,276.65262,-1.403,-9.273,3.35602,NaN,NaN,274,NaN,274,NaN,dichloromethane
WPKTWXFYOAVLHB-UHFFFAOYSA-N,O=C1C(c2ccc3c(n2)ccc2c3cccc2)C(=O)c2c1cccc2,O=C1C(c2ccc3c(n2)ccc2c3cccc2)C(=O)c2c1cccc2,320.0,0.00238349,-0.2181,-8.3843,1.67801,374.8010834507366,0.008990479,-1.2779,-8.0317,88.45729,-1.093,-9.113,0.8609,NaN,NaN,NaN,NaN,NaN,NaN,NaN
TYLDKKLAWINVKP-UHFFFAOYSA-N,Cc1ccc(cc1)N=NC(=NNc1ccccc1)c1ccccc1,Cc1ccc(cc1)N=NC(=NNc1ccccc1)c1ccccc1,497.6,0.001182997,-0.8418,-7.3598,2.97482,584.0047028050101,0.001698169,-1.4827,-7.6427,32.31399,-1.275,-8.283,3.12971,NaN,NaN,374,NaN,374,NaN,NaN
MSDYAVOGSQXZAK-UHFFFAOYSA-N,CCCCCC[n+]1c(C=C2C(=C(C2=O)C=c2sc3c(n2CCCCCC)cccc3)[O-])sc2c1cccc2,C[n+]1c(C=C2C(=C(C2=O)C=c2sc3c(n2C)cccc3)[O-])sc2c1cccc2,503.8,2.087106616,-0.8529,-6.255,0.01566,650.1531117226201,0.668981209,-1.8898,-6.6541,32.97555,-2.181,-6.523,11.76904,553.1798197886916,1.5546685884,650,NaN,650,NaN,NaN
BIJNHUAPTJVVNQ-UHFFFAOYSA-N,Oc1ccc2c3c1ccc1c3c(cc2)ccc1,Oc1ccc2c3c1ccc1c3c(cc2)ccc1,334.8,0.274471084,0.1059,-7.2538,1.02646,365.1964606936779,0.082962903,-0.7017,-7.268,53.03826,-1.02,-8.112,1.66237,NaN,NaN,242,NaN,242,NaN,NaN
QKLPIYTUUFFRLV-UHFFFAOYSA-N,Cc1ccccc1C=Cc1ccc(cc1)C=Cc1ccccc1C,Cc1ccccc1C=Cc1ccc(cc1)C=Cc1ccccc1C,329.4,1.806028286,-0.0925,-7.5153,0.69685,312.7754752913816,1.158478077,-0.0991,-7.6272,22.23903,-0.53,-8.711,0.0053,344.0755758706761,1.77784871,420.0,49000.0,247.0,15000.0,NaN
OMBGQQGAIIAQHJ-UHFFFAOYSA-N,Clc1ccc2c(c1)nccc2NCCCNCCCOc1ccc2c(c1)c1c(cc2)OC2=C(C1c1ccc(cc1)C(C)C)C(=O)CC(C2)(C)C,Clc1ccc2c(c1)nccc2NCCCNCCCOc1ccc2c(c1)c1c(cc2)OC2=C(C1c1ccc(cc1)C(C)C)C(=O)CC(C2)(C)C,294.3,0.127477207,0.2403,-7.5954,9.98310,352.4280796063208,0.000616994,-0.6933,-8.0004,501.34571,-0.659,-8.333,10.18158,NaN,NaN,333,12000.0,333,12000.0,methanol
HCSGQHDONHRJCM-UHFFFAOYSA-N,c1ccc(cc1)C=Cc1c2ccccc2cc2c1cccc2,c1ccc(cc1)C=Cc1c2ccccc2cc2c1cccc2,373.3,0.210267071,-0.1685,-7.3473,0.32039,381.6072588658161,0.20541706,-0.6535,-7.1574,8.63828,-1.073,-8.291,0.30132,NaN,NaN,385.0,NaN,385.0,NaN,MCH
QJVIEHMBGFEVQI-UHFFFAOYSA-N,CCC(=O)N1CC2CCCC(C1)N2CC=C(c1ccccc1)C,C(=O)N1CC2C(C1)N2CC=C(c1ccccc1)C,233.7,0.016594486,1.3273,-8.9145,5.42059,291.52174560428796,0.002515825,0.4778,-8.66,106.23261,-0.02,-9.224,5.37979,NaN,NaN,NaN,NaN,NaN,NaN,NaN
CCUSBMJFLRDBDC-UHFFFAOYSA-N,CNC(=S)NN=Cc1c[nH]c2c1cccc2,CNC(=S)NN=Cc1c[nH]c2c1cccc2,279.4,1.06959641,0.6046,-7.5684,7.60035,382.07765302158293,0.000589784,-0.7014,-8.0247,157.08188,-0.755,-8.199,7.85114,299.3991765696058,0.0001969376,262,NaN,262,NaN,NaN
TYPOAAKCWLHKAC-UHFFFAOYSA-N,Clc1ccc(cc1)c1nc2CCc3c(c2c2c1c1ccccc1CC2)cccc3,Clc1ccc(cc1)c1nc2CCc3c(c2c2c1c1ccccc1CC2)cccc3,291.0,0.408671436,0.2659,-7.9272,3.74955,334.18921403100717,0.33934002,-0.319,-7.6651,277.28141,-0.826,-8.786,4.28474,NaN,NaN,329.0,35700.0,269.0,16000.0,chloroform
MPGHYNJQWJVCOT-UHFFFAOYSA-N,Cc1ccc(cc1)C=NCCN=Cc1ccc(cc1)C,Cc1ccc(cc1)C=NCCN=Cc1ccc(cc1)C,258.1,0.082752738,0.733,-8.5526,2.36422,295.9050081276937,0.006538698,-0.1975,-8.4441,56.39789,-0.242,-9.091,2.58685,NaN,NaN,246,23087,246,23087,dichloromethane
PUIYMUZLKQOUOZ-UHFFFAOYSA-N,O=C(N(C)C)Nc1ccc(cc1)C(C)C,O=C(N(C)C)Nc1ccc(cc1)C(C)C,248.5,0.039996035,1.8381,-7.9278,3.71122,286.9340393554818,0.03186786,0.4021,-8.0917,81.79141,0.211,-8.558,3.20402,NaN,NaN,NaN,NaN,NaN,NaN,NaN
OQJKJUVCASMYJQ-UHFFFAOYSA-N,CCCCCCCCN1c2ccccc2C(C1=CC1=C([O-])C(=CC2=[N+](CCCCCCCC)c3c(C2(C)C)cccc3)C1=O)(C)C,CN1c2ccccc2C(C1=CC1=C([O-])C(=CC2=[N+](C)c3c(C2(C)C)cccc3)C1=O)(C)C,493.0,1.876266305,-0.8198,-6.415,0.19361,615.0009841542841,1.101523733,-1.6668,-6.6126,22.42858,-1.843,-6.677,0.88673,540.1419927212662,1.4298221094,637.5,NaN,637.5,NaN,chloroform
JBLTUHLGFSRIBZ-UHFFFAOYSA-N,CCCC[n+]1c(C=C2C(=C(C2=O)c2c(O)cc(cc2O)N2c3ccccc3C3C2CCC3)[O-])sc2c1cccc2,C[n+]1c(C=C2C(=C(C2=O)c2c(O)cc(cc2O)N2c3ccccc3C3C2C3)[O-])sc2c1cccc2,483.5,2.206433793,-1.2591,-6.7828,7.57139,642.4051730855113,0.729904829,-2.057,-6.8708,258.97991,-2.425,-7.22,13.97106,537.5658732623979,1.7367498985,0,191000.0,0,191000.0,NaN
WGDRKGIORBVJCJ-UHFFFAOYSA-N,Nc1[nH]nc(c1N=Nc1ccc(cc1)[N+](=O)[O-])N,Nc1[nH]nc(c1N=Nc1ccc(cc1)[N+](=O)[O-])N,388.8,0.000236577,-0.8244,-8.1203,7.59755,486.78523127406226,0.0180862,-2.3545,-8.5015,62.56097,-1.336,-8.941,7.22246,NaN,NaN,508.0,NaN,445.0,NaN,NaN
ZFKRUCNEKPIDBK-ZDUSSCGKSA-N,OC(=O)C[C@@](C(=O)O)(NCc1c(cnc(c1O)C)COP(=O)(O)O)C,OC(=O)C[C@@](C(=O)O)(NCc1c(cnc(c1O)C)COP(=O)(O)O)C,252.7,0.12547871,0.9102,-8.7345,6.17277,294.3594454071787,0.114635685,-0.3519,-8.6515,196.58759,-0.553,-9.229,3.73343,NaN,NaN,NaN,NaN,NaN,NaN,NaN
XZTHSCZJCCIPGU-UHFFFAOYSA-N,Fc1c(F)c(F)c(c2c1nc1c(n2)c(F)c(c(c1F)F)F)F,Fc1c(F)c(F)c(c2c1nc1c(n2)c(F)c(c(c1F)F)F)F,372.4,0.075359736,-1.7746,-9.0172,0.00007,387.6929280972597,0.112704426,-3.1515,-9.6852,0.00732,-2.95,-10.209,0.00048,NaN,NaN,367,NaN,367,NaN,NaN
YOCCEYWQDWJQGV-UHFFFAOYSA-N,BrCCOc1ccc(cc1)N=Nc1ccc(cc1)Br,BrCCOc1ccc(cc1)N=Nc1ccc(cc1)Br,431.9,0.001879401,-0.6366,-8.2356,1.86666,529.8470017329216,4.894e-06,-1.5147,-8.4042,136.01368,-1.422,-9.045,1.95358,NaN,NaN,352.0,NaN,352.0,NaN,NaN
WHYMKPIZXZVUCU-UHFFFAOYSA-N,CCCCn1c2ccc(cc2c2c1cccc2)C=Cc1ccc(c2c1nsn2)C=Cc1ccncc1,Cn1c2ccc(cc2c2c1cccc2)C=Cc1ccc(c2c1nsn2)C=Cc1ccncc1,435.9,1.496001368,-1.1348,-7.2173,6.78139,506.47139871529276,0.476285947,-1.8863,-7.4615,230.54965,-1.808,-8.123,5.98434,463.83910590811615,1.1648945409,NaN,NaN,NaN,NaN,NaN
HVIJSIYGVBMOSF-UHFFFAOYSA-N,C[SiH](c1cc(c2ccccc2)c2c3c1ccc1c3c(cc2)c(cc1c1ccccc1)[SiH](C)C)C,C[SiH](c1cc(c2ccccc2)c2c3c1ccc1c3c(cc2)c(cc1c1ccccc1)[SiH](C)C)C,357.9,0.658850381,-0.3167,-7.3261,0.00103,373.55889847997486,0.26079508,-0.4651,-6.9379,0.04499,-1.034,-8.113,0.00255,NaN,NaN,393.0,37000,375.0,25000,NaN
GUNRMHMEAWSZQE-UHFFFAOYSA-N,Cc1ccc(cc1)CNS(=O)(=O)c1ccc(s1)S(=O)(=O)N,Cc1ccc(cc1)CNS(=O)(=O)c1ccc(s1)S(=O)(=O)N,254.8,0.09252656,-0.1279,-8.8776,2.46373,343.92288045909476,0.012231049,-1.7407,-8.7427,209.77787,-1.594,-9.598,2.46173,NaN,NaN,519,NaN,519,NaN,NaN