inchikey,smi_pre,smi_post,lambda_sTDA (nm),f1_sTDA,lumo_dft,homo_dft,dmom_dft (D),lambda_z (nm),f1_z,lumo_z,homo_z,dmom_z (D),lumo_mopac,homo_mopac,dmom_mopac (D),lambda_tddft (nm),f1_tddft,lambda_exp_max (nm),epsilon_exp_max ,lambda_exp_min (nm),epsilon_exp_min ,solvent
AWFWRNTVCOBRBY-UHFFFAOYSA-N,COC(=O)c1c(ccc2c1nc(c1ccccc1)c(n2)c1ccccc1)C(=O)OC,COC(=O)c1c(ccc2c1nc(c1ccccc1)c(n2)c1ccccc1)C(=O)OC,326.0,0.008125613,-0.6742,-8.5972,3.87173,377.88539593265364,0.003975408,-1.3568,-8.3156,204.53084,-1.614,-9.547,4.46864,NaN,NaN,355,NaN,355,NaN,DMF
OFDJSAXVCJEKKC-UHFFFAOYSA-N,N#CC(=Cc1sc(c2c1OCCO2)c1ccc2c(c1)ccc(c2)OC)c1cccs1,N#CC(=Cc1sc(c2c1OCCO2)c1ccc2c(c1)ccc(c2)OC)c1cccs1,369.9,1.632586719,-0.495,-7.24,3.35074,418.5827089989995,0.864343358,-0.9821,-7.349,228.77586,-1.28,-8.36,3.99395,400.0909774734243,1.3673604059,377,NaN,377,NaN,DCM
WLTFTJDSNAOLBX-UHFFFAOYSA-N,c1ccc2c(c1)n(c1ccc3c(c1)ccc(n3)Nc1ccc3c(n1)ccc(c3)n1c3ccccc3c3c1cccc3)c1c2cccc1,c1ccc2c(c1)n(c1ccc3c(c1)ccc(n3)Nc1ccc3c(n1)ccc(c3)n1c3ccccc3c3c1cccc3)c1c2cccc1,314.7,0.9007724,-0.1782,-7.5285,2.20077,354.13938419167,0.576270393,-0.6035,-7.4945,52.10451,-1.19,-8.12,2.1692,330.0875722404607,0.8756334817,457,NaN,457,NaN,NaN
YXOLAZRVSSWPPT-UHFFFAOYSA-N,Oc1ccc(c(c1)O)c1oc2cc(O)cc(c2c(=O)c1O)O,Oc1ccc(c(c1)O)c1oc2cc(O)cc(c2c(=O)c1O)O,311.8,0.581707396,-0.1059,-7.9749,1.62759,360.9438090407676,0.407258762,-1.3707,-8.3694,38.46387,-1.158,-8.924,2.11516,NaN,NaN,420.0,NaN,357.0,NaN,NaN
RPMOYZNOMBQJMQ-UHFFFAOYSA-N,Clc1ccc(cc1)C=c1oc(=Cc2ccc(cc2)N(C)C)c2c1cccc2,Clc1ccc(cc1)C=c1oc(=Cc2ccc(cc2)N(C)C)c2c1cccc2,371.2,0.86077814,-0.0557,-6.7228,2.98202,366.491866407046,0.285075478,-0.5006,-7.2788,152.43452,-1.045,-7.826,3.15496,389.94871209070436,0.6953006553,413,28500.0,413,28500.0,NaN
JOFWLTCLBGQGBO-UHFFFAOYSA-N,Clc1ccc2c(c1)C(=NCc1n2c(C)nn1)c1ccccc1Cl,Clc1ccc2c(c1)C(=NCc1n2c(C)nn1)c1ccccc1Cl,270.7,0.002449191,-0.0673,-9.1704,5.74238,320.7870592639163,0.00452334,-0.6872,-8.5243,83.72951,-1.223,-9.773,6.61591,NaN,NaN,NaN,NaN,NaN,NaN,NaN
PPGBIIDGXRHRTD-UHFFFAOYSA-N,O=Cc1ccc2c(c1)Sc1c(N2)cccc1,O=Cc1ccc2c(c1)Sc1c(N2)cccc1,325.3,0.074812675,0.1643,-7.6529,5.60205,359.3744881318947,2.473e-06,-0.7782,-7.9517,82.95796,-0.907,-7.906,4.19742,NaN,NaN,395.0,22861,292.0,12307,DCM
VIXWTJBZFWWGCX-UHFFFAOYSA-N,c1csc(c1)c1ccc(s1)N=Nc1nc2c(s1)cccc2,c1csc(c1)c1ccc(s1)N=Nc1nc2c(s1)cccc2,461.8,1.0678e-05,-1.3303,-7.7989,1.92351,565.6213430908014,3.3171e-05,-2.1127,-7.54,110.63818,-1.839,-9.02,1.70685,NaN,NaN,517.0,27990,482.0,27990,Dioxane
LHLPPPWENAPSIH-UHFFFAOYSA-N,c1ccc2c(c1)c(C=Cc1ccc(cc1)c1nnc(o1)c1c3ccccc3cc3c1cccc3)c1c(c2)cccc1,c1ccc2c(c1)c(C=Cc1ccc(cc1)c1nnc(o1)c1c3ccccc3cc3c1cccc3)c1c(c2)cccc1,380.3,0.888733994,-0.542,-7.3702,3.57093,392.1068893279686,0.744557487,-0.926,-7.3155,133.60114,-1.544,-8.4,4.84285,390.61212000012426,0.7709647615,388,NaN,388,NaN,NaN
VTQDNBNWQHTFBO-UHFFFAOYSA-N,O=C(c1nccnc1C)C=Cc1ccc(cc1)OCc1ccccc1,O=C(c1nccnc1C)C=Cc1ccc(cc1)OCc1ccccc1,355.2,0.001885144,-0.4715,-8.1185,3.55653,402.4154443541177,0.004889414,-1.2196,-8.3674,126.08962,-1.19,-8.934,3.00409,NaN,NaN,310,NaN,310,NaN,ethanol
BRHVOINSTHZVSU-UHFFFAOYSA-N,CCN1C(=S)N(CC)C(=O)C(=CC=CC=CC=c2n(Cc3ccccc3)c3c4c2cccc4ccc3)C1=O,CCN1C(=S)N(CC)C(=O)C(=CC=CC=CC=c2n(Cc3ccccc3)c3c4c2cccc4ccc3)C1=O,480.1,2.597314565,-1.559,-7.0554,9.74851,474.8533068000906,0.039512468,-2.0265,-7.474,392.28513,-1.904,-8.217,8.90201,534.1613588782881,2.1544311001,806.0,NaN,622.0,NaN,Toluene
XUSYGBPHQBWGAD-RUZSNYSVSA-N,O=C1OC2CC3[C@]1(CCCC3(C)C)c1c2cc(c(c1O)O)C(C)C,O=C1OC2CC3[C@]1(C3(C)C)c1c2cc(c(c1O)O)C(C)C,250.8,0.009338854,1.4541,-8.2567,3.91533,311.83148492329894,0.024897444,0.0422,-8.0919,81.52018,-0.256,-9.007,4.14302,NaN,NaN,NaN,NaN,NaN,NaN,NaN
BIMXPQZTIIOZJI-UHFFFAOYSA-N,Oc1ccc(cc1)N=Cc1cc(cc(c1O)C(C)(C)C)C(C)(C)C,Oc1ccc(cc1)N=Cc1cc(cc(c1O)C(C)(C)C)C(C)(C)C,309.9,0.640796485,0.2105,-7.7509,1.59308,354.03825929612697,0.018412766,-0.4572,-8.1083,210.70799,-0.461,-8.668,2.51149,NaN,NaN,551.0,NaN,279.0,NaN,NaN
KSARQHVSFRLHIG-UHFFFAOYSA-N,Cc1ccc2c(c1)sc(n2)N=Nc1c(N)nc2n(c1N)nc(c2N=Nc1nc2c(s1)cc(cc2)C)N,Cc1ccc2c(c1)sc(n2)N=Nc1c(N)nc2n(c1N)nc(c2N=Nc1nc2c(s1)cc(cc2)C)N,442.9,0.025929028,-1.1662,-7.4766,4.20035,540.000864135469,0.005847015,-2.0565,-7.4442,95.71675,-1.787,-8.438,5.0967,NaN,NaN,534,NaN,534,NaN,NaN
YUFWSZUMTDGEIK-UHFFFAOYSA-N,N#CC(=Cc1ccc(o1)c1ccc(cc1)N(c1ccc(c(c1)OC)OC)c1ccc(c(c1)OC)OC)C(=O)O,N#CC(=Cc1ccc(o1)c1ccc(cc1)N(c1ccc(c(c1)OC)OC)c1ccc(c(c1)OC)OC)C(=O)O,378.6,1.186104986,-0.8705,-7.106,5.42216,495.93679362201465,0.633432543,-1.7766,-7.2287,194.76052,-1.72,-7.772,5.75917,414.77382914906815,0.974370489,504,31260,504,31260,NaN
WFZPOLHIEUDNHD-UHFFFAOYSA-N,COc1cccc(c1)C=NNC(=O)CSc1nnc(n1CC)c1ccco1,COc1cccc(c1)C=NNC(=O)CSc1nnc(n1CC)c1ccco1,277.7,0.59592473,0.5941,-7.954,7.63286,351.8280317976835,0.447361206,-0.7775,-8.0531,138.84108,-0.78,-8.889,5.30988,NaN,NaN,550.0,12302.68770812381,330.0,6025.595860743575,DMF
XNNLEMUSWLWGMY-UHFFFAOYSA-N,C#Cc1ccc(cc1)Oc1ccc(cc1)C#C,C#Cc1ccc(cc1)Oc1ccc(cc1)C#C,260.4,0.625176385,0.6528,-8.2597,0.23802,301.44468369925517,0.002305055,0.01,-8.0426,16.74814,-0.617,-8.982,0.62896,NaN,NaN,280.26,NaN,280.26,NaN,NaN
GESRGFMIQSKCHW-UHFFFAOYSA-N,CCOC(=O)C(=C1C=C(C=Cc2ccc(cc2OC)N(c2cccc(c2)OC)c2cccc(c2)OC)CC(C1)(C)C)C#N,CCOC(=O)C(=C1C=C(C=Cc2ccc(cc2OC)N(c2cccc(c2)OC)c2cccc(c2)OC)CC(C1)(C)C)C#N,380.7,2.000708991,-0.7733,-7.1053,11.46651,400.5951483214981,1.193492076,-1.2329,-7.3599,141.08821,-1.199,-8.176,8.02003,NaN,NaN,496.0,NaN,467.0,NaN,NaN
RJVDOHOHYBIXDB-UHFFFAOYSA-N,N#CC(=CNc1cccc(c1)F)C(=O)OC,N#CC(=CNc1cccc(c1)F)C(=O)OC,276.5,0.906569345,-0.1159,-8.5123,5.24820,336.1827505572225,0.503025887,-1.2141,-8.7449,47.99708,-1.419,-9.384,5.36079,293.88497442220404,0.7536979165,324.0,NaN,311.0,NaN,DMSO
KRTYOFGMKSOONG-UHFFFAOYSA-N,COC(=O)CCC(C(=O)OC)Cc1ccc(cc1)OC,COC(=O)CCC(C(=O)OC)Cc1ccc(cc1)OC,248.0,0.046926977,1.7268,-8.1715,2.78023,282.55286783387345,0.029999007,0.0356,-8.2845,51.42921,0.161,-8.873,2.44424,NaN,NaN,NaN,NaN,NaN,NaN,NaN
GRGZDLVBYQYQTF-UHFFFAOYSA-N,CCOC(=O)c1cc(n2c1cccn2)C(=O)c1ccc(cc1)F,CCOC(=O)c1cc(n2c1cccn2)C(=O)c1ccc(cc1)F,324.5,0.074644135,-0.2096,-8.4145,3.25061,387.5717361847567,0.183872799,-1.4781,-8.3956,69.84359,-1.333,-9.473,3.34017,NaN,NaN,442.0,NaN,333.0,NaN,ethanol
JPOGAMXKHZMWAC-UHFFFAOYSA-N,Cc1cc(c(s1)C)C1=C(C(=O)CC1)c1c(C)sc2c1cccc2,Cc1cc(c(s1)C)C1=C(C(=O)CC1)c1c(C)sc2c1cccc2,299.4,0.026861399,0.2798,-7.8599,4.30570,360.7337748196208,0.01407837,-0.5795,-7.7498,91.17144,-0.59,-8.231,4.50126,NaN,NaN,290.0,NaN,233.0,NaN,NaN
TZFKMPNAXRWFSA-UHFFFAOYSA-N,Nc1ccc2c(c1)C(=O)N(C2=O)CCc1ccccn1,Nc1ccc2c(c1)C(=O)N(C2=O)CCc1ccccn1,307.9,0.035310548,0.1649,-8.2957,3.89195,336.7305768753494,0.091368957,-1.249,-8.6785,36.30126,-1.026,-9.051,4.89538,NaN,NaN,474.0,NaN,366.0,NaN,NaN
HZOKSXYBJZFEDG-UHFFFAOYSA-N,CCCCCCn1cc(c2c1cccc2)C=C(c1ccc(s1)C=C(C(=O)O)C#N)C#N,Cn1cc(c2c1cccc2)C=C(c1ccc(s1)C=C(C(=O)O)C#N)C#N,332.1,0.343696016,-1.1477,-7.9383,3.70301,458.35193495565125,0.152265762,-1.5985,-7.4945,241.59917,-1.844,-8.692,7.15254,NaN,NaN,495,79000,495,79000,chloroform
CNGTXDRPSWDQPW-UHFFFAOYSA-N,Fc1c2sc3ccccc3[nH]c2c2c(c1F)c(=O)c1c(c2=O)c(Cl)ccc1Cl,Fc1c2sc3ccccc3[nH]c2c2c(c1F)c(=O)c1c(c2=O)c(Cl)ccc1Cl,401.9,0.325415763,-1.3689,-7.8066,4.42312,437.33403317637976,0.205322463,-2.2795,-8.2669,208.32401,-2.028,-8.225,4.84249,NaN,NaN,1960.7843137254902,NaN,354.0,NaN,NaN
WNIDSAZROHSXTI-UHFFFAOYSA-N,O=C1CC(C)(C)CC(=O)C1=NNc1ccccc1C(=O)O,O=C1CC(C)(C)CC(=O)C1=NNc1ccccc1C(=O)O,363.0,0.002077198,-0.6838,-8.4671,2.64578,430.0527173274494,0.001808349,-1.7657,-8.5993,117.88755,-1.253,-9.003,1.28138,NaN,NaN,442.0,4970,260.0,10490,Water
RWQNBRDOKXIBIV-UHFFFAOYSA-N,Cc1c[nH]c(=O)[nH]c1=O,Cc1c[nH]c(=O)[nH]c1=O,234.7,0.000842628,0.8594,-9.0909,4.35643,304.9291647946475,0.000537756,-0.934,-9.5671,52.57704,-0.588,-9.718,4.41665,NaN,NaN,254,NaN,254,NaN,NaN
PLQBFHMJMIZXOM-UHFFFAOYSA-N,CCCCCCCCC1(CCCCCCCC)c2cc(ccc2c2c1cc1nc3c4cccc5c4c4c(c3nc1c2)cccc4cc5)c1cccc2c1cccc2,C1(C)c2cc(ccc2c2c1cc1nc3c4cccc5c4c4c(c3nc1c2)cccc4cc5)c1cccc2c1cccc2,353.3,0.997764206,-0.6962,-7.6068,0.86294,422.5773633452749,0.967473355,-1.1406,-7.2856,92.12505,-1.397,-8.512,0.5511,NaN,NaN,425,NaN,425,NaN,DMSO
YAEDXLPRPDFAJD-UHFFFAOYSA-N,[O-][N+](=O)c1ccc(cc1)C=NN=Cc1cccs1,[O-][N+](=O)c1ccc(cc1)C=NN=Cc1cccs1,344.4,0.003732848,-1.1182,-8.5125,6.02291,424.1676305354213,0.002127895,-2.5613,-8.4121,59.48306,-1.865,-9.311,6.06332,NaN,NaN,342,NaN,342,NaN,dioxane
CJTCGDHHPKFNBD-UHFFFAOYSA-N,Oc1c(sc(c1O)c1nc2c(o1)cccc2)c1nc2c(o1)cccc2,Oc1c(sc(c1O)c1nc2c(o1)cccc2)c1nc2c(o1)cccc2,328.9,1.592632117,-0.4816,-7.8375,2.33022,449.87009581097124,0.929925639,-1.7584,-7.7497,40.20480,-1.765,-8.602,2.71109,347.98673274366234,1.2886226854,394.0,NaN,354.0,NaN,NaN
DOTFRYDIXFCOQC-UHFFFAOYSA-N,COC(=O)c1n2nc(ccc2c(c1C(=O)OC)C(=O)OC)c1ccc(cc1)Cl,COC(=O)c1n2nc(ccc2c(c1C(=O)OC)C(=O)OC)c1ccc(cc1)Cl,313.8,0.057198053,-0.2908,-8.5335,2.52697,378.2312336958623,0.226285361,-1.5388,-8.5582,83.15127,-1.55,-9.585,0.9566,NaN,NaN,344.0,NaN,226.0,NaN,acetonitrile
JFEYGISZCPCXSW-UHFFFAOYSA-N,N#CC(=C1OC(C(=C1C#N)C=Cc1ccc(cc1)N=NC=C1N(C)c2c(C1(C)C)cccc2)(C)C)C#N,N#CC(=C1OC(C(=C1C#N)C=Cc1ccc(cc1)N=NC=C1N(C)c2c(C1(C)C)cccc2)(C)C)C#N,431.4,2.421021037,-1.7768,-7.5513,17.70788,487.55091783524836,0.121894693,-1.8991,-7.6805,317.50307,-2.303,-8.387,15.631,474.7987324675045,2.0969607334,590,NaN,590,NaN,THF
IZYBNNLGFQKCBU-UHFFFAOYSA-N,N#CC(=Cc1ccc(cc1)N(c1ccc(cc1)C#Cc1cccnc1)c1ccc(cc1)C#Cc1cccnc1)C(=O)O,N#CC(=Cc1ccc(cc1)N(c1ccc(cc1)C#Cc1cccnc1)c1ccc(cc1)C#Cc1cccnc1)C(=O)O,354.1,1.463034212,-0.9276,-7.588,6.80896,392.7279011894319,0.635283874,-1.4323,-7.4283,240.65102,-1.581,-8.426,2.49751,NaN,NaN,443.0,100000.0,360.0,78000.0,NaN
QACRJXSXSVUOFZ-LEGAQXIXSA-N,OC[C@H]1O[C@H]([C@@H]([C@H]([C@@H]1O)O)OC(=O)C=Cc1ccc(cc1)O)c1c(O)cc(c2c1oc(CC(=O)C)cc2=O)C,OC[C@H]1O[C@H]([C@@H]([C@H]([C@@H]1O)O)OC(=O)C=Cc1ccc(cc1)O)c1c(O)cc(c2c1oc(CC(=O)C)cc2=O)C,283.1,0.000662286,0.0712,-8.4597,5.40029,372.54867309346054,2.4064e-05,-1.2028,-8.5878,151.25924,-1.157,-9.455,5.84378,NaN,NaN,NaN,NaN,NaN,NaN,NaN
AZZPJOAQANZVNM-UHFFFAOYSA-N,CCCCCCCCCCOc1cc(C#Cc2ccc(cc2)C#C[Si](C)(C)C)c(cc1C#Cc1ccc(cc1)C#C[Si](C)(C)C)OCCCCCCCCCC,COc1cc(C#Cc2ccc(cc2)C#C[Si](C)(C)C)c(cc1C#Cc1ccc(cc1)C#C[Si](C)(C)C)OC,359.8,2.852720807,-0.4675,-7.3149,0.03310,355.5612228434289,1.161145914,-0.2432,-7.3128,1.22663,-1.007,-8.158,0.07061,375.0278070454914,2.4952458258,256,NaN,256,NaN,NaN
JYBMFXZQFAJJPZ-JWYNLTDQSA-N,O=C(C(c1ccccc1)NC1=CC(=O)C(=CC1=O)C)NC1C(=O)N2[C@@H]1SC([C@@H]2C(=O)O)(C)C,O=C(C(c1ccccc1)NC1=CC(=O)C(=CC1=O)C)NC1C(=O)N2[C@@H]1SC([C@@H]2C(=O)O)(C)C,417.8,0.032834213,-1.7727,-9.0003,4.44611,447.59638413539227,0.022860466,-2.7931,-9.3177,126.84586,-1.77,-9.219,6.75709,NaN,NaN,277,NaN,277,NaN,NaN
FDZZZIPHTKTQTN-UHFFFAOYSA-N,CCCCC(CN(c1ccc2c(c1)nn(n2)c1ccccc1)CC(CCCC)CC)CC,C(CN(c1ccc2c(c1)nn(n2)c1ccccc1)CC(C)CC)CC,317.5,0.491913658,0.1988,-7.4407,1.79965,392.4792605429049,0.508432106,-1.0799,-7.6997,168.20611,-0.949,-7.95,2.05944,NaN,NaN,632.0,38018.93963205613,250.0,21877.616239495517,NaN
XQUJVRFRXSZOIU-UHFFFAOYSA-N,O=C1CC(=O)C(=C1P(c1ccccc1)c1ccccc1)P(c1ccccc1)c1ccccc1,O=C1CC(=O)C(=C1P(c1ccccc1)c1ccccc1)P(c1ccccc1)c1ccccc1,385.1,0.055863695,-0.5796,-8.2662,2.48864,430.9495947358487,9.456e-05,-1.4923,-8.5374,93.16820,-1.629,-8.388,1.4401,NaN,NaN,374.0,NaN,370.0,NaN,CH2Cl2
OCVAHMCBVFAZDE-UHFFFAOYSA-N,CCN(c1ccc(cc1)C=Cc1cc(C#N)c(cc1C#N)C=Cc1ccc(cc1)N(CC)CC)CC,CCN(c1ccc(cc1)C=Cc1cc(C#N)c(cc1C#N)C=Cc1ccc(cc1)N(CC)CC)CC,384.1,2.524943598,-0.5685,-6.919,0.52759,374.00964828206236,0.874067473,-1.0344,-7.3928,31.84245,-1.308,-7.947,1.0505,NaN,NaN,488,65500.0,488,65500.0,NaN
MNUXYVNQTPXGTB-UHFFFAOYSA-N,CCN(c1ccc(cc1)c1ccc2c(c1)c1nc3c(nc1cc2)c1cccnc1c1c3cccn1)CC,CCN(c1ccc(cc1)c1ccc2c(c1)c1nc3c(nc1cc2)c1cccnc1c1c3cccn1)CC,348.0,0.481750412,-0.6078,-7.2067,5.58898,409.5943125388294,0.667065883,-1.1695,-7.3746,250.93588,-1.471,-7.883,6.31066,NaN,NaN,522.0,NaN,341.0,NaN,TFA
VWBVCOPVKXNMMZ-UHFFFAOYSA-N,Nc1cccc2c1C(=O)c1cccc(c1C2=O)N,Nc1cccc2c1C(=O)c1cccc(c1C2=O)N,374.3,0.370303338,-0.7867,-7.9284,0.00084,411.7708349568371,1.57e-06,-1.7051,-8.2454,0.02322,-1.358,-8.581,0.00388,NaN,NaN,492.0,NaN,128.2,NaN,NaN
WNVWOVZQKRDTFZ-UHFFFAOYSA-N,COc1cccc(c1)Nc1nc2c(n1CCc1ccc(cc1)Cl)cc1c(c2)c(C)c(c(=O)o1)C(=O)N,COc1cccc(c1)Nc1nc2c(n1CCc1ccc(cc1)Cl)cc1c(c2)c(C)c(c(=O)o1)C(=O)N,306.9,0.507879975,-0.0479,-7.8828,10.04830,385.7629072977712,0.307921662,-1.1702,-7.9477,279.30229,-1.43,-8.61,7.03633,NaN,NaN,354,NaN,354,NaN,ethanol
BZAMFZHEUCNWJC-UHFFFAOYSA-N,c1ccc(cc1)c1c(nc(n1c1ccccc1)c1ccc(cc1)C=Cc1cccs1)c1ccccc1,c1ccc(cc1)c1c(nc(n1c1ccccc1)c1ccc(cc1)C=Cc1cccs1)c1ccccc1,333.0,1.806612407,-0.0565,-7.2891,3.70134,376.9662462921972,0.97677018,-0.6605,-7.1261,238.09376,-1.017,-8.416,4.26568,342.6965726229013,1.5536869272,350,NaN,350,NaN,NaN
LCVMGYVXMAZNIR-UHFFFAOYSA-N,Clc1ccc(c(c1)Cl)N=Nc1ccc(c2c1cccn2)O,Clc1ccc(c(c1)Cl)N=Nc1ccc(c2c1cccn2)O,455.9,0.033447891,-0.8257,-7.9824,1.12886,526.9196702316348,0.00020438,-1.5992,-8.1667,183.28761,-1.6,-8.976,1.18029,NaN,NaN,410.0,NaN,410.0,NaN,NaN
DIBNSBDSZPULJU-UHFFFAOYSA-N,C=Cc1ccc(cc1)CNc1ccc2c(c1)C(=O)c1c(C2=O)cccc1,C=Cc1ccc(cc1)CNc1ccc2c(c1)C(=O)c1c(C2=O)cccc1,353.6,0.095250759,-0.8198,-8.1409,3.08086,405.4421138178668,4.752e-06,-1.7358,-8.4381,130.01568,-1.331,-8.594,4.00109,NaN,NaN,311,NaN,311,NaN,NaN
QECAXXUNCRXCPI-UHFFFAOYSA-N,COC(=O)c1n2nc(ccc2c(c1C(=O)OC)C(=O)OC)c1ccc(cc1)F,COC(=O)c1n2nc(ccc2c(c1C(=O)OC)C(=O)OC)c1ccc(cc1)F,313.0,0.064993138,-0.2086,-8.5042,2.69138,377.4252615083825,0.227226223,-1.5014,-8.5266,45.64757,-1.516,-9.574,0.98548,NaN,NaN,449.0,NaN,347.0,NaN,MeOH
VKCCJOSVXPRAJS-UHFFFAOYSA-N,COc1ccc(cc1)C#Cc1c(C#Cc2ccc(cc2)OC)c(C#Cc2ccc(cc2)OC)c(c(c1C#Cc1ccc(cc1)OC)F)F,COc1ccc(cc1)C#Cc1c(C#Cc2ccc(cc2)OC)c(C#Cc2ccc(cc2)OC)c(c(c1C#Cc1ccc(cc1)OC)F)F,336.7,0.683281356,-0.2508,-7.3448,6.07564,406.1061199001103,0.154058466,-0.9372,-7.3875,173.41006,-1.288,-8.368,2.08465,NaN,NaN,396.0,NaN,333.0,NaN,NaN
MTBGSWOVQXJXKI-UHFFFAOYSA-N,OC(=O)c1ccccc1C(=O)c1c2cc(ccn2c2c1C(=O)c1ccccc1C2=O)C(C)(C)C,OC(=O)c1ccccc1C(=O)c1c2cc(ccn2c2c1C(=O)c1ccccc1C2=O)C(C)(C)C,393.1,0.16479233,-1.0368,-7.905,2.60681,534.1843964045827,0.214688077,-1.9379,-7.5966,115.91945,-1.561,-8.782,2.64894,NaN,NaN,507.0,7048,478.0,7048,DMF
DGCHASONLNGOCL-UHFFFAOYSA-N,Brc1cc2c(=O)c(=O)c3c4c2c(c1)c(=O)c(=O)c4cc(c3)Br,Brc1cc2c(=O)c(=O)c3c4c2c(c1)c(=O)c(=O)c4cc(c3)Br,471.2,9e-09,-2.0874,-9.3757,0.00018,545.9453914817423,1e-09,-3.0558,-9.7122,0.00916,-2.583,-9.976,0.00107,NaN,NaN,290,NaN,290,NaN,DMF
RZEKVGVHFLEQIL-UHFFFAOYSA-N,Cc1ccc(cc1)c1cc(nn1c1ccc(cc1)S(=O)(=O)N)C(F)(F)F,Cc1ccc(cc1)c1cc(nn1c1ccc(cc1)S(=O)(=O)N)C(F)(F)F,253.9,0.249652404,0.1197,-8.9121,3.87759,291.7961835855582,0.23277847,-0.9145,-8.8502,258.74238,-1.345,-9.839,5.10924,NaN,NaN,NaN,NaN,NaN,NaN,NaN
ZXSLAAJAICPZNV-UHFFFAOYSA-N,COc1c(Cl)cc2c(c1Cl)n(C)c1c2cc(cc1)Cl,COc1c(Cl)cc2c(c1Cl)n(C)c1c2cc(cc1)Cl,300.6,0.039964834,0.3494,-7.9362,3.24304,329.92069825839184,0.006254875,-0.7561,-8.4906,92.85386,-1.055,-8.617,3.97057,NaN,NaN,382.0,NaN,312.0,NaN,NaN
DTRSQXPJNNMSME-UHFFFAOYSA-N,c1ccc(cc1)N(c1ccccc1)c1ccc(cc1)C=C(c1[nH]nnn1)c1[nH]nnn1,c1ccc(cc1)N(c1ccccc1)c1ccc(cc1)C=C(c1[nH]nnn1)c1[nH]nnn1,338.3,0.902494816,-0.7391,-7.8346,10.20302,381.3724958643607,0.312574354,-1.4046,-7.7008,324.18162,-1.716,-8.563,10.17408,369.72682354994765,0.8528571207,467,NaN,467,NaN,NaN
ONSCXXKYFHNQSQ-UHFFFAOYSA-N,CCCCc1ccc(cc1)N=C1C(=Nc2ccc(cc2)CCCC)N=c2n1cccc2,Cc1ccc(cc1)N=C1C(=Nc2ccc(cc2)C)N=c2n1cccc2,451.4,0.408401702,-0.984,-7.3502,3.24398,439.3486832229045,0.005779771,-1.2992,-7.5056,93.35639,-1.395,-8.4,1.12046,NaN,NaN,585,NaN,585,NaN,THF
NPDVWHWXLZUDHX-UHFFFAOYSA-N,N#CC(c1scc2c1OCCO2)C#N,N#CC(c1scc2c1OCCO2)C#N,230.7,0.22478598,0.8765,-8.8468,4.42552,297.82416143527183,0.192178872,-0.4515,-8.6692,49.97750,-1.003,-8.882,6.68646,NaN,NaN,NaN,NaN,NaN,NaN,NaN
NRBSKYHCMYLDCR-UHFFFAOYSA-N,NCCCNCCCNCCCCN(CCCNC(=O)c1ccc(cc1)O)O,NCNCNCN(CNC(=O)c1ccc(cc1)O)O,247.1,0.02755972,1.3679,-8.4987,5.41308,298.82911160642,0.011353663,-0.1241,-8.9236,52.60731,-0.385,-9.186,3.54773,NaN,NaN,199,NaN,199,NaN,NaN
FOTLYZKPRKAHEM-UHFFFAOYSA-N,N#CC(=Cc1ccc(s1)C=Cc1ccc(cc1)N1c2ccccc2CCc2c1cccc2)C(=O)O,N#CC(=Cc1ccc(s1)C=Cc1ccc(cc1)N1c2ccccc2CCc2c1cccc2)C(=O)O,390.7,2.178730265,-0.9989,-7.2844,8.48898,467.1597528466604,1.082281499,-1.731,-7.5271,544.03916,-1.812,-8.316,7.6275,429.620544749435,1.8630086335,467.0,NaN,466.0,NaN,NaN
FKHDVSXPRRQJBN-UHFFFAOYSA-N,CCCCN1c2ccc(cc2Sc2c1ccc(c2)C=Cc1cc(=O)oc2c1ccc(c2)C)C=Cc1cc(=O)oc2c1ccc(c2)C,CN1c2ccc(cc2Sc2c1ccc(c2)C=Cc1cc(=O)oc2c1ccc(c2)C)C=Cc1cc(=O)oc2c1ccc(c2)C,339.4,0.933452638,-0.5534,-7.6305,3.69110,324.90618030792365,0.572702723,-1.0429,-7.8275,130.38533,-1.215,-8.03,4.97523,365.13191485816776,1.0312511302,441,NaN,441,NaN,chloroform
JTRDHRRFYSJNEL-UHFFFAOYSA-N,COc1ccc2c(c1)[nH]c1c(c2)c(=O)nc(n1)c1ccccc1,COc1ccc2c(c1)[nH]c1c(c2)c(=O)nc(n1)c1ccccc1,363.8,0.000751572,-0.9042,-8.3019,10.12742,NaN,NaN,NaN,Nan,NaN,-1.637,-9.141,9.50134,NaN,NaN,374.0,75857.75750291836,255.0,30199.51720402019,NaN
GBMXNGQRJOPQHQ-UHFFFAOYSA-N,Clc1ccc2c(c1)nccc2n1nnc(c1C)C(=O)C=Cc1ccc2c(c1)OCO2,Clc1ccc2c(c1)nccc2n1nnc(c1C)C(=O)C=Cc1ccc2c(c1)OCO2,317.3,0.001656186,-0.5226,-7.9635,2.13028,373.89685888270105,0.003606559,-1.1783,-8.398,181.98437,-1.689,-8.935,2.5365,NaN,NaN,236,NaN,236,NaN,methanol
URXDRRZCAZYGNI-UHFFFAOYSA-N,Oc1ccc(c2c1nccc2)N=Nc1scc(n1)c1ccccc1,Oc1ccc(c2c1nccc2)N=Nc1scc(n1)c1ccccc1,456.0,0.000959581,-1.0062,-7.7924,1.49764,538.3595241228991,0.018095361,-1.687,-7.8835,127.25473,-1.698,-8.765,1.86811,NaN,NaN,570.0,NaN,516.0,NaN,DMSO
JGSARLDLIJGVTE-MBNYWOFBSA-N,O=C(Cc1ccccc1)N[C@@H]1C(=O)N2[C@@H]1SC([C@@H]2C(=O)O)(C)C,O=C(Cc1ccccc1)N[C@@H]1C(=O)N2[C@@H]1SC([C@@H]2C(=O)O)(C)C,231.2,0.000249123,1.1124,-9.3217,4.15879,304.18105595069596,0.003065904,-0.2137,-9.2001,172.33364,-0.718,-9.229,4.74021,NaN,NaN,NaN,NaN,NaN,NaN,NaN
CPUNNQNJICUXCS-UHFFFAOYSA-N,Oc1ccc(cc1)C=NNC(=O)c1ccc(cc1)Cn1c2ccccc2c2c1cccc2,Oc1ccc(cc1)C=NNC(=O)c1ccc(cc1)Cn1c2ccccc2c2c1cccc2,289.7,0.024854393,0.5157,-7.7652,3.69094,318.72544577250295,0.006888636,-0.6459,-7.9125,112.07624,-0.564,-8.38,2.91451,NaN,NaN,321,NaN,321,NaN,NaN
NCMVOABPESMRCP-UHFFFAOYSA-N,OC1CC(OC1COP(=O)(O)O)n1ccc(nc1=O)N,OC1CC(OC1COP(=O)(O)O)n1ccc(nc1=O)N,245.3,0.134929941,1.3178,-8.566,3.33907,296.1170250907658,0.143941821,-0.515,-9.0539,140.74807,-0.508,-9.669,4.09678,NaN,NaN,271,8879,271,8879,NaN
WQRPOPPFRFKLBO-UHFFFAOYSA-N,CCOC(=O)C(=CNc1cccc(c1)F)C#N,CCOC(=O)C(=CNc1cccc(c1)F)C#N,275.3,0.910109084,-0.0595,-8.494,5.30477,336.36516116522967,0.499749825,-1.1893,-8.7216,64.76805,-1.382,-9.342,5.30555,293.97556137341894,0.7739563058,321.0,NaN,311.0,NaN,DMSO
OAZWDJGLIYNYMU-UHFFFAOYSA-N,CN(c1ccc(cc1)C(c1ccc(cc1)N(C)C)c1ccc(cc1)N(C)C)C,CN(c1ccc(cc1)C(c1ccc(cc1)N(C)C)c1ccc(cc1)N(C)C)C,269.9,0.100476657,1.7116,-6.8967,1.02477,298.46942321979697,0.068721276,0.7431,-7.4154,1.43539,0.613,-7.835,1.07895,NaN,NaN,NaN,NaN,NaN,NaN,NaN
ZHTAVGZHENZJFL-UHFFFAOYSA-N,Brc1ccc(cc1)CN1CCN(CC1)c1ccc(cc1)N=Nc1ccc(cc1)[N+](=O)[O-],Brc1ccc(cc1)CN1CCN(CC1)c1ccc(cc1)N=Nc1ccc(cc1)[N+](=O)[O-],442.1,0.000105521,-1.0642,-7.7738,7.53073,521.1609853110705,0.013361967,-2.4799,-8.2314,368.19615,-1.662,-8.658,7.24619,NaN,NaN,254,NaN,254,NaN,NaN
ROOCNULMRLQKSC-UHFFFAOYSA-N,CCOC(=O)Cc1cc(=O)oc2c1ccc(c2)O,CCOC(=O)Cc1cc(=O)oc2c1ccc(c2)O,276.2,0.327104513,0.1584,-8.4441,5.64540,332.0412383650339,0.349155433,-1.3164,-8.7705,70.16341,-1.168,-9.403,4.92643,NaN,NaN,500,NaN,500,NaN,NaN
PEVXPOYINWHTRB-UHFFFAOYSA-N,c1ccc(cc1)C1(C=Cc2c(O1)ccc1c2ccc(c1)C=Cc1cc2ccccc2c2c1OC(C=C2)(c1ccccc1)c1ccccc1)c1ccccc1,c1ccc(cc1)C1(C=Cc2c(O1)ccc1c2ccc(c1)C=Cc1cc2ccccc2c2c1OC(C=C2)(c1ccccc1)c1ccccc1)c1ccccc1,328.5,0.17835075,0.0076,-7.3189,0.31714,354.13938419167,0.134026494,-0.3779,-7.3186,11.73677,-0.854,-8.244,0.87208,NaN,NaN,446,NaN,446,NaN,NaN
RIFQJOZLZUCQGY-UHFFFAOYSA-N,O=C(c1ccccn1)NCCC[Si]12OCCN(CCO1)CCO2,O=C(c1ccccn1)NCCC[Si]12OCCN(CCO1)CCO2,269.1,0.004843736,0.7726,-8.9272,4.40920,312.93336296189716,0.002905392,-0.4201,-8.7376,31.08033,-0.526,-8.544,4.6407,NaN,NaN,245,NaN,245,NaN,NaN