inchikey,smi_pre,smi_post,lambda_sTDA (nm),f1_sTDA,lumo_dft,homo_dft,dmom_dft (D),lambda_z (nm),f1_z,lumo_z,homo_z,dmom_z (D),lumo_mopac,homo_mopac,dmom_mopac (D),lambda_tddft (nm),f1_tddft,lambda_exp_max (nm),epsilon_exp_max ,lambda_exp_min (nm),epsilon_exp_min ,solvent
JIXZRYYJXYBQHZ-INIZCTEOSA-N,Cc1[nH]ccc2c1c(cc2)C1=N[C@@H](CO1)c1ccccc1,Cc1[nH]ccc2c1c(cc2)C1=N[C@@H](CO1)c1ccccc1,363.7,0.103819548,0.8073,-7.0334,4.04207,474.12695374953597,0.125235074,-0.6661,-7.0449,36.98682,-0.623,-7.983,4.54515,NaN,NaN,254,NaN,254,NaN,NaN
NSEMIZWDHWYRJR-UHFFFAOYSA-N,CCOC(=O)c1c(C)cc(c2c1OCC=CC2)C,CCOC(=O)c1c(C)cc(c2c1OCC=CC2)C,245.2,0.02045718,1.2557,-8.6286,2.86860,301.8115832655883,0.026729227,-0.0627,-8.3846,68.71870,-0.096,-9.221,1.95386,NaN,NaN,254,NaN,254,NaN,NaN
SYIDIEFUDNJFOV-UHFFFAOYSA-N,O=CC(C(c1ccccc1)C[N+](=O)[O-])C,O=CC(C(c1ccccc1)C[N+](=O)[O-])C,298.9,0.000187223,0.3624,-9.4541,3.73505,417.45521348654427,0.000129192,-2.5188,-9.0472,108.32876,-0.276,-10.043,5.07336,NaN,NaN,220,NaN,220,NaN,NaN
POKAPHQUTJNOIO-UHFFFAOYSA-N,O=CC(C(c1ccc(cc1)OC)C[N+](=O)[O-])C,O=CC(C(c1ccc(cc1)OC)C[N+](=O)[O-])C,299.5,0.000218905,0.4326,-8.551,3.77244,418.0182009625882,0.000137363,-2.5388,-8.6474,95.01662,-0.235,-9.266,5.54262,NaN,NaN,254,NaN,254,NaN,NaN
PWJCOSIRBSCAJQ-UHFFFAOYSA-N,O=CC(C(c1ccc(cc1)Br)C[N+](=O)[O-])C,O=CC(C(c1ccc(cc1)Br)C[N+](=O)[O-])C,293.3,6.99e-05,0.4528,-9.1416,5.21417,410.5437033294823,3.8538e-05,-2.4726,-9.2227,245.05046,-0.652,-9.755,4.9636,NaN,NaN,254,NaN,254,NaN,NaN
DCOZLRHTURZMSR-UHFFFAOYSA-N,CCC(C(c1ccccc1)C[N+](=O)[O-])C=O,CCC(C(c1ccccc1)C[N+](=O)[O-])C=O,300.1,0.000165783,0.394,-9.4365,3.83148,418.5827089989995,0.000144678,-2.5073,-9.037,121.98909,-0.182,-9.937,3.94177,NaN,NaN,237,NaN,237,NaN,NaN
ZKHYPMADUKLPNI-UHFFFAOYSA-N,CCC(C(c1ccc(cc1)Br)C[N+](=O)[O-])C=O,CCC(C(c1ccc(cc1)Br)C[N+](=O)[O-])C=O,293.7,7.376e-05,0.4603,-9.1258,5.32000,411.3609767933101,1.1213e-05,-2.4585,-9.1958,283.65002,-0.655,-9.754,4.97578,NaN,NaN,237,NaN,237,NaN,NaN
WOOSBMKYYZFLDP-UHFFFAOYSA-N,CCCC(C(c1ccccc1)C[N+](=O)[O-])C=O,C(C(c1ccccc1)C[N+](=O)[O-])C=O,299.4,0.000169683,0.3632,-9.4427,3.24096,416.89374043545274,0.000115582,-2.5475,-9.0932,95.91889,-0.191,-9.96,3.6366,NaN,NaN,220,NaN,220,NaN,NaN
GGFREYPOFRXRBD-UHFFFAOYSA-N,CCCC(C(c1ccc(cc1)OC)C[N+](=O)[O-])C=O,C(C(c1ccc(cc1)OC)C[N+](=O)[O-])C=O,299.2,0.000208881,0.426,-8.5533,3.48584,420.14299696883654,6.85e-05,-2.573,-8.6786,84.84422,-0.095,-9.152,3.56309,NaN,NaN,237,NaN,237,NaN,NaN
DNFVRRRDDLDFAX-UHFFFAOYSA-N,CCCC(C(c1ccc(cc1)Br)C[N+](=O)[O-])C=O,C(C(c1ccc(cc1)Br)C[N+](=O)[O-])C=O,294.7,9.0713e-05,0.2881,-9.0297,5.46255,410.1362831806274,5.4211e-05,-2.6932,-9.3297,218.72212,-0.739,-9.826,2.1129,NaN,NaN,220,NaN,220,NaN,NaN
XOGIFCAGQBTOQE-UHFFFAOYSA-N,O=CC(C(c1ccccc1)C[N+](=O)[O-])C(C)C,O=CC(C(c1ccccc1)C[N+](=O)[O-])C(C)C,299.3,0.000195681,0.3716,-9.4314,3.76902,418.8655351537286,0.000141435,-2.5081,-9.006,131.38856,-0.15,-9.904,4.16403,NaN,NaN,220,NaN,220,NaN,NaN
KBGNHIMBLZVVGW-UHFFFAOYSA-N,O=CC(C(c1ccc(cc1)Br)C[N+](=O)[O-])C(C)C,O=CC(C(c1ccc(cc1)Br)C[N+](=O)[O-])C(C)C,294.0,7.4859e-05,0.4759,-9.1227,5.43449,411.6341248522698,2.426e-05,-2.4511,-9.1906,308.87177,-0.646,-9.749,5.03706,NaN,NaN,220,NaN,220,NaN,NaN
YGRPUDQMUGUKKE-UHFFFAOYSA-N,O=CC(C(c1ccc(cc1)Br)C[N+](=O)[O-])(C)C,O=CC(C(c1ccc(cc1)Br)C[N+](=O)[O-])(C)C,294.8,0.000113732,0.3292,-9.166,4.44442,413.2806613516789,6.7634e-05,-2.5191,-9.2534,293.72087,-0.544,-9.665,6.12384,NaN,NaN,220,NaN,220,NaN,NaN
WAPNOHKVXSQRPX-UHFFFAOYSA-N,CC(c1ccccc1)O,CC(c1ccccc1)O,231.9,0.002423684,1.6706,-9.0836,1.32801,269.0629305674993,0.006356095,0.6403,-8.8364,27.62566,0.145,-9.663,1.76748,NaN,NaN,254,NaN,254,NaN,NaN
FFFLTPZFXWCHCT-UHFFFAOYSA-N,ClCc1cc(=O)oc2c1ccc(c2)C,ClCc1cc(=O)oc2c1ccc(c2)C,280.9,0.245116812,-0.2314,-8.8278,4.64257,328.0005248822848,0.348586015,-1.2266,-8.788,123.18163,-1.317,-9.496,4.70666,NaN,NaN,314,NaN,314,NaN,NaN
TUGYAFPYVRHPJF-UHFFFAOYSA-N,ClCc1cc(=O)oc2c1cc([N+](=O)[O-])c(c2)C,ClCc1cc(=O)oc2c1cc([N+](=O)[O-])c(c2)C,316.8,0.014437263,-0.7372,-9.4576,1.45319,446.6289567921602,7.2827e-05,-2.7924,-9.5336,86.93808,-1.839,-10.196,2.03451,NaN,NaN,320,NaN,320,NaN,NaN
CEONKCOBRZOYJS-UHFFFAOYSA-N,Cc1cc(=O)n(c2c1cccc2)C,Cc1cc(=O)n(c2c1cccc2)C,287.2,0.143359111,0.3359,-8.248,3.88968,322.95962074890247,0.191982536,-0.7136,-8.4735,51.55682,-0.743,-8.759,3.96793,NaN,NaN,329,NaN,329,NaN,NaN
DIMXWHYSAPQPRI-UHFFFAOYSA-N,Cc1ccc2c(c1)c(C)cc(=O)n2C,Cc1ccc2c(c1)c(C)cc(=O)n2C,293.5,0.144511746,0.3814,-8.0614,4.41635,331.95233843508345,0.183740373,-0.6858,-8.3004,74.07732,-0.698,-8.568,4.71266,NaN,NaN,337,NaN,337,NaN,NaN
MKANUEIEMPZYCE-UHFFFAOYSA-N,COc1ccc2c(c1)c(C)cc(=O)n2C,COc1ccc2c(c1)c(C)cc(=O)n2C,310.1,0.170288893,0.3476,-7.7852,4.59003,334.82095167567826,0.194681282,-0.7408,-8.3036,33.95543,-0.81,-8.364,4.61885,NaN,NaN,351,NaN,351,NaN,NaN
HMNIMRLJXGFNQG-UHFFFAOYSA-N,O=Cc1cc(=O)n(c2c1cccc2)C,O=Cc1cc(=O)n(c2c1cccc2)C,321.3,0.000145384,-0.6927,-8.5938,2.88977,397.3852512996912,1.6367e-05,-1.7325,-8.7186,57.96962,-1.402,-8.984,2.27524,NaN,NaN,330,NaN,330,NaN,NaN
JRPAWHYNKXIKRL-UHFFFAOYSA-N,O=Cc1cc(=O)n(c2c1cc(C)cc2)C,O=Cc1cc(=O)n(c2c1cc(C)cc2)C,325.7,0.137714517,-0.6434,-8.381,3.19120,397.25792504166503,3.6514e-05,-1.7024,-8.5016,78.42000,-1.166,-8.842,5.80845,NaN,NaN,338,NaN,338,NaN,NaN
WREAXOYWNSABMJ-UHFFFAOYSA-N,O=Cc1cc(=O)n(c2c1cc(OC)cc2)C,O=Cc1cc(=O)n(c2c1cc(OC)cc2)C,349.5,0.143661612,-0.6581,-8.0347,2.54432,396.36892073370734,1.3679e-05,-1.7683,-8.4856,40.37077,-1.422,-8.52,2.02092,NaN,NaN,341,NaN,341,NaN,NaN
VTYDSAOMKQENIX-UHFFFAOYSA-N,OCc1cc(=O)n(c2c1cccc2)C,OCc1cc(=O)n(c2c1cccc2)C,290.2,0.146129706,0.1879,-8.3437,2.68774,324.396123509952,0.193187271,-0.8012,-8.5306,47.90530,-0.921,-8.858,2.61346,NaN,NaN,328,NaN,328,NaN,NaN
BZRXJTOTYRXBEC-UHFFFAOYSA-N,OCc1cc(=O)n(c2c1cc(C)cc2)C,OCc1cc(=O)n(c2c1cc(C)cc2)C,296.4,0.145470054,0.2384,-8.1479,3.20880,333.91919850660827,0.181900963,-0.7772,-8.3494,70.70411,-0.883,-8.66,3.33437,NaN,NaN,335,NaN,335,NaN,NaN
BVDOKGKVKQDADG-UHFFFAOYSA-N,OCc1cc(=O)n(c2c1cc(OC)cc2)C,OCc1cc(=O)n(c2c1cc(OC)cc2)C,314.9,0.17106891,0.2049,-7.8471,3.12016,337.1884645240785,0.191521416,-0.8325,-8.3467,28.23052,-0.984,-8.43,2.87173,NaN,NaN,352,NaN,352,NaN,NaN
MKVNTYGLLWTMFN-UHFFFAOYSA-N,ClCc1cc(=O)n(c2c1cccc2)C,ClCc1cc(=O)n(c2c1cccc2)C,293.8,0.150558769,0.011,-8.4296,3.57117,327.3078099406116,0.201103997,-0.9778,-8.627,113.26935,-1.087,-8.924,3.81782,NaN,NaN,333,NaN,333,NaN,NaN
OKEKQLCRIFSLCJ-UHFFFAOYSA-N,ClCc1cc(=O)n(c2c1cc(C)cc2)C,ClCc1cc(=O)n(c2c1cc(C)cc2)C,300.1,0.15357203,0.0584,-8.2339,4.07174,337.00516011281235,0.189706603,-0.9445,-8.4355,126.36532,-1.036,-8.72,4.35324,NaN,NaN,343,NaN,343,NaN,NaN
QTUGBNWHHGHIPV-UHFFFAOYSA-N,ClCc1cc(=O)n(c2c1cc(OC)cc2)C,ClCc1cc(=O)n(c2c1cc(OC)cc2)C,318.5,0.177596505,0.0324,-7.9335,3.87659,340.42888084981786,0.199335085,-1.0015,-8.4339,96.88950,-1.122,-8.503,3.88228,NaN,NaN,358,NaN,358,NaN,NaN
MNOMWKYICNWWJP-UHFFFAOYSA-N,ClCc1cc(=O)n(c2c1c([N+](=O)[O-])c(C)cc2)C,ClCc1cc(=O)n(c2c1c([N+](=O)[O-])c(C)cc2)C,326.9,0.018517855,-0.6071,-8.7249,4.37766,472.6808936542267,0.042405313,-2.7482,-8.9375,134.72828,-1.677,-9.194,4.74055,NaN,NaN,343,NaN,343,NaN,NaN
SDYAUNJNGGCGEZ-DEOSSOPVSA-N,O=C(N[C@H](C(=O)OCc1cc(=O)oc2c1ccc(c2)C)Cc1ccccc1)OCc1ccccc1,O=C(N[C@H](C(=O)OCc1cc(=O)oc2c1ccc(c2)C)Cc1ccccc1)OCc1ccccc1,275.8,0.284000285,-0.0296,-8.7528,5.71940,324.396123509952,0.323306002,-1.0543,-8.6794,93.22989,-1.06,-9.419,5.18425,NaN,NaN,317,NaN,317,NaN,NaN
RLEFOHINDMHGGJ-QHCPKHFHSA-N,O=C(N[C@H](C(=O)OCc1cc(=O)oc2c1cc([N+](=O)[O-])c(c2)C)Cc1ccccc1)OCc1ccccc1,O=C(N[C@H](C(=O)OCc1cc(=O)oc2c1cc([N+](=O)[O-])c(c2)C)Cc1ccccc1)OCc1ccccc1,315.2,0.009853023,-0.7842,-9.2021,3.32756,441.38198079566985,0.004515763,-2.8672,-8.9502,160.31139,-1.575,-9.797,1.95282,NaN,NaN,316,NaN,316,NaN,NaN
BYBMQKPYKLTSHG-DEOSSOPVSA-N,O=C(N[C@H](C(=O)OCc1cc(=O)n(c2c1cccc2)C)Cc1ccccc1)OCc1ccccc1,O=C(N[C@H](C(=O)OCc1cc(=O)n(c2c1cccc2)C)Cc1ccccc1)OCc1ccccc1,292.3,0.14064744,0.1827,-8.3151,5.89679,325.759848674471,0.152529311,-0.8306,-8.5205,93.04085,-0.888,-8.895,4.82878,NaN,NaN,330,NaN,330,NaN,NaN
SYKHBEUWPNJOPW-VWLOTQADSA-N,O=C(N[C@H](C(=O)OCc1cc(=O)n(c2c1cc(C)cc2)C)Cc1ccccc1)OCc1ccccc1,O=C(N[C@H](C(=O)OCc1cc(=O)n(c2c1cc(C)cc2)C)Cc1ccccc1)OCc1ccccc1,299.1,0.140152305,0.1769,-8.1603,6.38156,336.27393112423016,0.158181281,-0.8091,-8.3624,118.64701,-0.819,-8.58,5.77496,NaN,NaN,339,NaN,339,NaN,NaN
NETQBXXPJAOLJO-VWLOTQADSA-N,COc1ccc2c(c1)c(COC(=O)[C@H](Cc1ccccc1)NC(=O)OCc1ccccc1)cc(=O)n2C,COc1ccc2c(c1)c(COC(=O)[C@H](Cc1ccccc1)NC(=O)OCc1ccccc1)cc(=O)n2C,317.1,0.189372915,0.1461,-7.8746,2.18140,340.990644679603,0.153364112,-0.7895,-8.2455,75.49994,-0.96,-8.479,6.10869,NaN,NaN,354,NaN,354,NaN,NaN
KFUZTMKJAAFIIQ-QHCPKHFHSA-N,O=C(N[C@H](C(=O)OCc1cc(=O)n(c2c1c([N+](=O)[O-])c(C)cc2)C)Cc1ccccc1)OCc1ccccc1,O=C(N[C@H](C(=O)OCc1cc(=O)n(c2c1c([N+](=O)[O-])c(C)cc2)C)Cc1ccccc1)OCc1ccccc1,329.0,0.017933008,-0.6435,-8.6893,6.61875,494.55204788792844,0.039057898,-2.8912,-8.7681,210.10652,-1.559,-9.066,6.03627,NaN,NaN,341,NaN,341,NaN,NaN
VDCDWNDTNSWDFJ-UHFFFAOYSA-N,[O-][N+](=O)c1cc(O)c(c(c1)[N+](=O)[O-])O,[O-][N+](=O)c1cc(O)c(c(c1)[N+](=O)[O-])O,313.0,0.041698765,-1.2931,-9.503,4.09393,433.8145500542465,1.765e-06,-3.4252,-10.202,24.30712,-2.231,-10.271,4.09219,NaN,NaN,254,NaN,254,NaN,NaN
XUEWIQNQPBSCOR-MRVPVSSYSA-N,O[C@@H](c1ccccc1)C[N+](=O)[O-],O[C@@H](c1ccccc1)C[N+](=O)[O-],297.3,8.4594e-05,0.4244,-9.48,3.40375,412.86779355812075,1.0207e-05,-2.5617,-9.1462,89.77792,-0.371,-10.057,3.40779,NaN,NaN,215,NaN,215,NaN,NaN
MODZQVKATBYVFE-MRVPVSSYSA-N,COc1ccccc1[C@@H](C[N+](=O)[O-])O,COc1ccccc1[C@@H](C[N+](=O)[O-])O,300.7,0.000179945,0.5155,-8.5644,2.72338,408.6493025890035,2.9765e-05,-2.3528,-8.8591,92.47520,-0.25,-9.383,4.73026,NaN,NaN,215,NaN,215,NaN,NaN
JMSCBFOLZGXSIY-SECBINFHSA-N,COc1cccc(c1)[C@@H](C[N+](=O)[O-])O,COc1cccc(c1)[C@@H](C[N+](=O)[O-])O,298.3,8.9786e-05,0.387,-8.5947,2.87425,415.35744859465217,2.6389e-05,-2.6221,-8.8573,77.41124,-0.307,-9.274,2.79832,NaN,NaN,215,NaN,215,NaN,NaN
OGLIZYGDJZWODN-SECBINFHSA-N,[O-][N+](=O)C[C@H](c1cccc(c1)C)O,[O-][N+](=O)C[C@H](c1cccc(c1)C)O,297.9,8.7231e-05,0.4397,-9.1812,3.31539,412.86779355812075,2.7338e-05,-2.5426,-8.9439,110.27554,-0.234,-9.777,3.65505,NaN,NaN,254,NaN,254,NaN,NaN
IZWUDFARMFNVQL-SECBINFHSA-N,O[C@@H](c1ccc(cc1)C)C[N+](=O)[O-],O[C@@H](c1ccc(cc1)C)C[N+](=O)[O-],297.5,8.5038e-05,0.4703,-9.1321,3.48360,413.2806613516789,7.6524e-05,-2.5363,-8.7892,121.36784,-0.198,-9.731,4.1913,NaN,NaN,215,NaN,215,NaN,NaN
NSILZMQANUEUBT-MRVPVSSYSA-N,[O-][N+](=O)C[C@H](c1ccccc1Cl)O,[O-][N+](=O)C[C@H](c1ccccc1Cl)O,300.6,7.2994e-05,0.4217,-9.3115,4.30294,407.70864322756876,2.1439e-05,-2.4366,-9.5279,113.28193,-0.694,-10.152,4.28912,NaN,NaN,215,NaN,215,NaN,NaN
HJHMYJMYRHZPEF-UHFFFAOYSA-N,[O-][N+](=O)CC(c1cccc(c1)Cl)O,[O-][N+](=O)CC(c1cccc(c1)Cl)O,297.2,8.1779e-05,0.3067,-9.3284,4.07285,413.4184675075147,7.838e-06,-2.6975,-9.517,90.59723,-0.696,-10.075,2.62615,NaN,NaN,215,NaN,215,NaN,NaN
WNUQITFXWFDBIZ-MRVPVSSYSA-N,O[C@@H](c1ccc(cc1)Cl)C[N+](=O)[O-],O[C@@H](c1ccc(cc1)Cl)C[N+](=O)[O-],297.2,8.3518e-05,0.2853,-9.2856,3.52244,413.69435570738625,9.955e-06,-2.7387,-9.467,59.61468,-0.734,-10.038,1.38347,NaN,NaN,215,NaN,215,NaN,NaN
BJTKOTCLYXBRAC-UHFFFAOYSA-N,[O-][N+](=O)CC(c1ccccc1Br)O,[O-][N+](=O)CC(c1ccccc1Br)O,297.5,9.2971e-05,0.3719,-9.2754,3.38875,414.9404230438543,2.3453e-05,-2.6449,-9.4722,137.90625,-0.683,-9.954,4.10747,NaN,NaN,215,NaN,215,NaN,NaN
FPNSSOOFMYVGFF-UHFFFAOYSA-N,[O-][N+](=O)CC(c1cccc(c1)Br)O,[O-][N+](=O)CC(c1cccc(c1)Br)O,296.6,9.1533e-05,0.2993,-9.228,4.05820,413.97061237229934,6.975e-06,-2.6825,-9.4253,172.15642,-0.683,-9.852,2.71583,NaN,NaN,215,NaN,215,NaN,NaN
YMNZDCGZFNOZDK-MRVPVSSYSA-N,O[C@@H](c1ccc(cc1)Br)C[N+](=O)[O-],O[C@@H](c1ccc(cc1)Br)C[N+](=O)[O-],296.9,7.6412e-05,0.2823,-9.2037,3.55609,413.97061237229934,1.2344e-05,-2.7155,-9.3488,166.27571,-0.718,-9.819,3.40756,NaN,NaN,215,NaN,215,NaN,NaN
VHQOMTRRZXGIFH-MRVPVSSYSA-N,O[C@@H](c1ccc(cc1)F)C[N+](=O)[O-],O[C@@H](c1ccc(cc1)F)C[N+](=O)[O-],297.0,7.0119e-05,0.3278,-9.3888,3.46893,414.1088791098986,1.8131e-05,-2.7032,-9.3108,40.10430,-0.605,-10.168,1.784,NaN,NaN,215,NaN,215,NaN,NaN
RUZOFDGXZOBZBL-GFCCVEGCSA-N,[O-][N+](=O)C[C@H](c1cccc2c1cccc2)O,[O-][N+](=O)C[C@H](c1cccc2c1cccc2)O,299.0,0.000153996,0.3451,-8.3475,3.24654,473.94571255926473,0.000436237,-2.5374,-8.1101,107.62638,-0.993,-9.302,4.94043,NaN,NaN,215,NaN,215,NaN,NaN
INTIIAIHJNNMBV-GFCCVEGCSA-N,[O-][N+](=O)C[C@H](c1ccc2c(c1)cccc2)O,[O-][N+](=O)C[C@H](c1ccc2c(c1)cccc2)O,297.1,0.000101007,0.4176,-8.4089,3.35674,433.5111832360268,0.000685213,-2.5469,-8.1965,131.93482,-0.99,-9.351,5.58694,NaN,NaN,215,NaN,215,NaN,NaN
KOGUOOUOKGDIRG-LURJTMIESA-N,O[C@@H](Cc1ccco1)C[N+](=O)[O-],O[C@@H](Cc1ccco1)C[N+](=O)[O-],299.7,0.000121587,0.2829,-8.9099,3.01365,418.0182009625882,0.001493749,-2.6446,-8.5488,62.95521,-0.162,-9.788,3.61428,NaN,NaN,215,NaN,215,NaN,NaN
VBINJEMMNGAHJO-MRVPVSSYSA-N,[O-][N+](=O)C[C@H](c1ccccc1[N+](=O)[O-])O,[O-][N+](=O)C[C@H](c1ccccc1[N+](=O)[O-])O,312.8,0.012370396,-0.244,-10.053,5.53798,446.1468096635612,0.017440953,-2.7406,-9.9614,119.40246,-1.668,-10.785,6.25427,NaN,NaN,215,NaN,215,NaN,NaN
IBFRLMGYDNNEOC-MRVPVSSYSA-N,[O-][N+](=O)C[C@H](c1cccc(c1)[N+](=O)[O-])O,[O-][N+](=O)C[C@H](c1cccc(c1)[N+](=O)[O-])O,316.5,6.811e-05,-0.643,-10.1966,6.11610,425.47768841971055,0.001637723,-2.8577,-9.9809,78.61063,-1.556,-10.879,3.84153,NaN,NaN,215,NaN,215,NaN,NaN
IBGLUMJSLYZZRX-MRVPVSSYSA-N,[O-][N+](=O)C[C@H](c1ccc(cc1)[N+](=O)[O-])O,[O-][N+](=O)C[C@H](c1ccc(cc1)[N+](=O)[O-])O,316.7,5.1917e-05,-0.6926,-10.2708,5.46233,422.7214401824196,0.000206757,-2.9663,-10.0866,43.67699,-1.668,-10.909,2.10913,NaN,NaN,215,NaN,215,NaN,NaN
GXYHVCZKOHOZBX-UHFFFAOYSA-N,[O-][N+](=O)CC(c1cccc(c1)O)O,[O-][N+](=O)CC(c1cccc(c1)O)O,297.9,9.5993e-05,0.3462,-8.7547,2.96635,414.52423405384036,1.4903e-05,-2.6338,-8.9495,74.17384,-0.44,-9.535,3.07786,NaN,NaN,215,NaN,215,NaN,NaN
QAOFQUYFFYEOET-MRVPVSSYSA-N,O[C@@H](C1CCCCC1)C[N+](=O)[O-],O[C@@H](C1CCCCC1)C[N+](=O)[O-],NaN,NaN,NaN,NaN,NaN,NaN,NaN,NaN,Nan,NaN,NaN,NaN,NaN,NaN,NaN,215,NaN,215,NaN,NaN
KJTQHXTUICAYHG-RXMQYKEDSA-N,O[C@@H](C(C)C)C[N+](=O)[O-],O[C@@H](C(C)C)C[N+](=O)[O-],NaN,NaN,NaN,NaN,NaN,NaN,NaN,NaN,Nan,NaN,NaN,NaN,NaN,NaN,NaN,220,NaN,220,NaN,NaN
OFEODFOGZSJOCW-LURJTMIESA-N,CC(C[C@@H](C[N+](=O)[O-])O)C,CC(C[C@@H](C[N+](=O)[O-])O)C,NaN,NaN,NaN,NaN,NaN,NaN,NaN,NaN,Nan,NaN,NaN,NaN,NaN,NaN,NaN,215,NaN,215,NaN,NaN
BZEUMFLJQNTWNY-UHFFFAOYSA-N,COc1c(O)c2c3ccccc3n(c2c2c1c1ccccc1n2C)C,COc1c(O)c2c3ccccc3n(c2c2c1c1ccccc1n2C)C,321.7,0.13393948,0.6951,-6.98,2.83339,354.03825929612697,0.037539236,-0.2405,-7.3679,70.37668,-0.687,-7.782,2.75966,NaN,NaN,450,NaN,450,NaN,NaN
NRBWSWFJDAHKDU-XABBOIKWSA-N,OC[C@H]1O[C@H]([C@@H]([C@@H]1O)NC(=O)c1cc(F)cc(c1)F)n1cnc2c1ncnc2NCc1cccc2c1cccc2,OC[C@H]1O[C@H]([C@@H]([C@@H]1O)NC(=O)c1cc(F)cc(c1)F)n1cnc2c1ncnc2NCc1cccc2c1cccc2,290.3,0.139394967,0.3583,-8.4232,4.62052,314.0430557383578,0.005301376,-0.8132,-8.0164,381.53066,-1.06,-8.794,0.35573,NaN,NaN,254,NaN,254,NaN,NaN
WZRZTHMJPHPAMU-UHFFFAOYSA-L,CC1=CC(=C(c2ccc(c(c2)S(=O)(=O)O)N)c2ccc(c(c2)S(=O)(=O)[O-])N)C=C(C1=N)S(=O)(=O)[O-].[Na+].[Na+],CC1=CC(=C(c2ccc(c(c2)S(=O)(=O)O)N)c2ccc(c(c2)S(=O)(=O)[O-])N)C=C(C1=N)S(=O)(=O)[O-].[Na+].[Na+],NaN,NaN,NaN,NaN,NaN,NaN,NaN,NaN,Nan,NaN,NaN,NaN,NaN,NaN,NaN,508,NaN,508,NaN,NaN
XJENLUNLXRJLEZ-UHFFFAOYSA-M,CCN(c1cc2[o+]c3cc(N(CC)CC)c(cc3c(c2cc1C)c1ccc(cc1S(=O)(=O)[O-])S(=O)(=O)[O-])C)CC.[Na+],CCN(c1cc2[o+]c3cc(N(CC)CC)c(cc3c(c2cc1C)c1ccc(cc1S(=O)(=O)[O-])S(=O)(=O)[O-])C)CC.[Na+],NaN,NaN,NaN,NaN,NaN,NaN,NaN,NaN,Nan,NaN,NaN,NaN,NaN,NaN,NaN,533,NaN,533,NaN,NaN
KXXXUIKPSVVSAW-UHFFFAOYSA-K,Oc1cc(c2c3c1ccc1c3c(cc2)c(cc1S(=O)(=O)[O-])S(=O)(=O)[O-])S(=O)(=O)[O-].[Na+].[Na+].[Na+],Oc1cc(c2c3c1ccc1c3c(cc2)c(cc1S(=O)(=O)[O-])S(=O)(=O)[O-])S(=O)(=O)[O-].[Na+].[Na+].[Na+],NaN,NaN,NaN,NaN,NaN,NaN,NaN,NaN,Nan,NaN,NaN,NaN,NaN,NaN,NaN,458,NaN,458,NaN,NaN
YAIKCRUPEVOINQ-UHFFFAOYSA-L,Nc1ccc2c(c1S(=O)(=O)[O-])cccc2S(=O)(=O)[O-],Nc1ccc2c(c1S(=O)(=O)[O-])cccc2S(=O)(=O)[O-],NaN,NaN,NaN,NaN,NaN,NaN,NaN,NaN,Nan,NaN,NaN,NaN,NaN,NaN,NaN,349,NaN,349,NaN,NaN
GWIAAIUASRVOIA-UHFFFAOYSA-M,Nc1ccc2c(c1S(=O)(=O)[O-])cccc2,Nc1ccc2c(c1S(=O)(=O)[O-])cccc2,NaN,NaN,NaN,NaN,NaN,NaN,NaN,NaN,Nan,NaN,NaN,NaN,NaN,NaN,NaN,340,NaN,340,NaN,NaN
ZMCHBSMFKQYNKA-UHFFFAOYSA-M,Nc1ccccc1S(=O)(=O)[O-],Nc1ccccc1S(=O)(=O)[O-],NaN,NaN,NaN,NaN,NaN,NaN,NaN,NaN,Nan,NaN,NaN,NaN,NaN,NaN,NaN,317,NaN,317,NaN,NaN
VOBHRQFELWTZFS-UHFFFAOYSA-K,O=C1C(=NNc2ccc(c3c2cccc3)S(=O)(=O)[O-])c2ccc(cc2C=C1S(=O)(=O)[O-])S(=O)(=O)[O-].[Na+].[Na+].[Na+],O=C1C(=NNc2ccc(c3c2cccc3)S(=O)(=O)[O-])c2ccc(cc2C=C1S(=O)(=O)[O-])S(=O)(=O)[O-].[Na+].[Na+].[Na+],NaN,NaN,NaN,NaN,NaN,NaN,NaN,NaN,Nan,NaN,NaN,NaN,NaN,NaN,NaN,517,NaN,517,NaN,NaN
MQHFURHHKNKIRN-UHFFFAOYSA-L,Oc1cc(cc2c1C(=O)C(=NNc1ccc(cc1)[N+](=O)[O-])C(=C2)S(=O)(=O)[O-])S(=O)(=O)[O-].[Na+].[Na+],Oc1cc(cc2c1C(=O)C(=NNc1ccc(cc1)[N+](=O)[O-])C(=C2)S(=O)(=O)[O-])S(=O)(=O)[O-].[Na+].[Na+],NaN,NaN,NaN,NaN,NaN,NaN,NaN,NaN,Nan,NaN,NaN,NaN,NaN,NaN,NaN,503,NaN,503,NaN,NaN
WUHZZVWKGCJQHU-IOSLPCCCSA-N,OC[C@H]1O[C@H]([C@@H]([C@@H]1O)O)n1cc(c2c1ncnc2N)Cl,OC[C@H]1O[C@H]([C@@H]([C@@H]1O)O)n1cc(c2c1ncnc2N)Cl,257.9,0.217977842,0.909,-8.2621,2.83306,324.396123509952,6.5952e-05,-0.356,-8.2805,67.46870,-0.681,-8.963,2.79897,NaN,NaN,281,NaN,281,NaN,NaN
ZWTPRQXZXQEKFT-IOSLPCCCSA-N,OC[C@H]1O[C@H]([C@@H]([C@@H]1O)O)n1cc(c2c1ncnc2N)Br,OC[C@H]1O[C@H]([C@@H]([C@@H]1O)O)n1cc(c2c1ncnc2N)Br,255.0,0.219201612,1.1011,-8.1274,3.00462,356.3788399123416,1.909e-05,-0.2746,-8.2023,211.91577,-0.66,-8.912,2.71062,NaN,NaN,281,NaN,281,NaN,NaN
WHSIXKUPQCKWBY-IOSLPCCCSA-N,OC[C@H]1O[C@H]([C@@H]([C@@H]1O)O)n1cc(c2c1ncnc2N)I,OC[C@H]1O[C@H]([C@@H]([C@@H]1O)O)n1cc(c2c1ncnc2N)I,280.0,0.003366547,0.8956,-8.1982,2.99404,NaN,NaN,NaN,Nan,NaN,-0.677,-8.687,2.61406,NaN,NaN,284,NaN,284,NaN,NaN
LWJAFSORWVWWSU-IDTAVKCVSA-N,OC[C@H]1O[C@H]([C@@H]([C@@H]1O)O)n1cc(c2c1ncnc2N)C#CC,OC[C@H]1O[C@H]([C@@H]([C@@H]1O)O)n1cc(c2c1ncnc2N)C#CC,261.6,0.26208989,0.937,-7.9169,4.78842,319.2178125785367,0.221149335,-0.1619,-7.6674,114.01735,-0.502,-8.606,5.37899,NaN,NaN,280.0,NaN,237.0,NaN,NaN
YVYDCPNOECLLOY-XCMNSTNTSA-N,OC[C@H]1O[C@H]([C@@H]([C@@H]1O)O)n1cc(c2c1ncnc2N)C#CCN1C(=O)c2c(C1=O)cccc2,OC[C@H]1O[C@H]([C@@H]([C@@H]1O)O)n1cc(c2c1ncnc2N)C#CCN1C(=O)c2c(C1=O)cccc2,279.3,0.0004945,-0.7125,-7.9626,6.13304,353.23133448861444,0.002120471,-1.6699,-7.5252,121.52626,-1.582,-8.569,7.10658,NaN,NaN,280,NaN,280,NaN,NaN
DPRSKJHWKNHBOW-UHFFFAOYSA-N,OCC1OC(C(C1O)O)n1ccc2c1[nH]cnc2=O,OCC1OC(C(C1O)O)n1ccc2c1[nH]cnc2=O,261.7,0.002148919,1.4032,-8.0308,12.42111,335.00188707242273,0.001911887,-0.3042,-8.1279,31.26438,-0.083,-8.832,10.79045,NaN,NaN,259,NaN,259,NaN,NaN
PUESXBCBRCLQQZ-IOSLPCCCSA-N,OC[C@H]1O[C@H]([C@@H]([C@@H]1O)O)n1cc(c2c1nc[nH]c2=O)F,OC[C@H]1O[C@H]([C@@H]([C@@H]1O)O)n1cc(c2c1nc[nH]c2=O)F,263.9,0.26229971,0.6204,-8.4821,3.43586,342.59242444184486,0.182206985,-0.971,-8.4207,45.80863,-0.987,-9.297,3.51256,NaN,NaN,264,NaN,264,NaN,NaN
JSSHAZXKMOPEJQ-IOSLPCCCSA-N,OC[C@H]1O[C@H]([C@@H]([C@@H]1O)O)n1cc(c2c1nc[nH]c2=O)Cl,OC[C@H]1O[C@H]([C@@H]([C@@H]1O)O)n1cc(c2c1nc[nH]c2=O)Cl,264.6,0.241749122,0.6343,-8.4156,3.41751,340.80318418225306,0.185579125,-0.9731,-8.4525,95.67821,-0.946,-9.165,3.46375,NaN,NaN,264,NaN,264,NaN,NaN
SNKQPKSLQPSSDH-IOSLPCCCSA-N,OC[C@H]1O[C@H]([C@@H]([C@@H]1O)O)n1cc(c2c1nc[nH]c2=O)Br,OC[C@H]1O[C@H]([C@@H]([C@@H]1O)O)n1cc(c2c1nc[nH]c2=O)Br,262.7,0.240951817,0.8155,-8.27,4.40766,342.59242444184486,0.186120223,-0.9051,-8.3509,232.62593,-0.962,-9.071,4.79115,NaN,NaN,265,NaN,265,NaN,NaN
QTTPSWNJDDVBIP-NBEYISGCSA-N,OCC1=C[C@@H]([C@H]([C@@H]1O)n1cnc2c1ncnc2N)O,OCC1=C[C@@H]([C@H]([C@@H]1O)n1cnc2c1ncnc2N)O,240.8,0.212073126,1.3034,-8.3512,1.75221,303.06575019678235,0.179625764,-0.1156,-8.1797,23.92371,-0.67,-9.212,2.90664,NaN,NaN,931,NaN,931,NaN,NaN
OAKJQQAXSVQMHS-UHFFFAOYSA-N,NN,NN,NaN,NaN,NaN,NaN,NaN,NaN,NaN,NaN,Nan,NaN,NaN,NaN,NaN,NaN,NaN,254,NaN,254,NaN,NaN
LAOLGBUGKPPOPT-UHFFFAOYSA-N,CN(C(Cc1ccc(cc1)O)(I)I)C,CN(C(Cc1ccc(cc1)O)(I)I)C,340.0,0.004361411,0.0024,-8.4322,3.06579,NaN,NaN,NaN,Nan,NaN,-0.672,-8.793,3.84534,NaN,NaN,254,NaN,254,NaN,NaN