inchikey,smi_pre,smi_post,lambda_sTDA (nm),f1_sTDA,lumo_dft,homo_dft,dmom_dft (D),lambda_z (nm),f1_z,lumo_z,homo_z,dmom_z (D),lumo_mopac,homo_mopac,dmom_mopac (D),lambda_tddft (nm),f1_tddft,lambda_exp_max (nm),epsilon_exp_max ,lambda_exp_min (nm),epsilon_exp_min ,solvent
PQTSGEPEHGTTML-UHFFFAOYSA-N,CCOC(=O)Cc1[nH]c2c(c1)cc(cc2)OCc1ccccc1,CCOC(=O)Cc1[nH]c2c(c1)cc(cc2)OCc1ccccc1,265.1,0.08205379,1.557,-7.5963,3.83972,316.2055557396166,0.111494604,-0.007,-7.6249,89.22167,-0.063,-8.252,3.75582,NaN,NaN,305,NaN,305,NaN,NaN
RDRVDMGCJZOXST-UHFFFAOYSA-N,O=C1OCCCN1C(=O)Cc1cc2c([nH]1)cccc2,O=C1OCCCN1C(=O)Cc1cc2c([nH]1)cccc2,263.4,0.13788927,1.1488,-7.7445,4.39093,326.4460200250228,0.199817618,-0.5233,-7.6825,86.56824,-0.046,-8.464,4.60729,NaN,NaN,287,NaN,287,NaN,NaN
XHKLUTRFAIWSAW-KRWDZBQOSA-N,O=C1OC[C@@H](N1C(=O)Cc1cc2c([nH]1)cccc2)Cc1ccccc1,O=C1OC[C@@H](N1C(=O)Cc1cc2c([nH]1)cccc2)Cc1ccccc1,263.8,0.124004682,1.0766,-7.8263,3.59506,332.4864532193716,0.200035336,-0.6113,-7.6863,113.77520,-0.163,-8.557,3.38147,NaN,NaN,289,NaN,289,NaN,NaN
OBYJFWVFCFYKNY-UHFFFAOYSA-N,C#CCN1C(=O)C=CC1=O,C#CCN1C(=O)C=CC1=O,NaN,NaN,NaN,NaN,NaN,NaN,NaN,NaN,Nan,NaN,NaN,NaN,NaN,NaN,NaN,328,NaN,328,NaN,NaN
FJTCDSWVTPGHDU-UHFFFAOYSA-N,COC(=O)C(=C(Cc1ccccc1[N+](=O)[O-])O)C(=O)OC,COC(=O)C(=C(Cc1ccccc1[N+](=O)[O-])O)C(=O)OC,317.5,0.009531393,-0.3896,-9.1687,2.63376,444.06947852974093,0.007335922,-2.5509,-9.6925,74.63446,-1.329,-10.233,3.81641,NaN,NaN,260,NaN,260,NaN,NaN
IDICKJSRTGQKOY-UHFFFAOYSA-N,OC(=C1C(=O)OC(OC1=O)(C)C)Cc1cc(ccc1[N+](=O)[O-])OCc1ccccc1,OC(=C1C(=O)OC(OC1=O)(C)C)Cc1cc(ccc1[N+](=O)[O-])OCc1ccccc1,312.7,0.014377276,-0.436,-9.2365,4.04661,482.8045109248585,0.014432789,-2.7634,-9.1705,220.13184,-1.308,-9.964,6.4714,NaN,NaN,309,NaN,309,NaN,NaN
NEVSSHAHYYYAKX-UHFFFAOYSA-N,CCOC(=O)CC(=O)Cc1ccccc1[N+](=O)[O-],CCOC(=O)CC(=O)Cc1ccccc1[N+](=O)[O-],316.7,0.002295793,-0.4994,-9.5841,3.76168,434.2703972171757,0.001315658,-2.5664,-9.6576,74.62363,-1.286,-10.201,3.25229,NaN,NaN,260,NaN,260,NaN,NaN
ANVDCKJUADUHBB-UHFFFAOYSA-N,C#CCOC(=O)CC(=O)Cc1ccccc1[N+](=O)[O-],C#CCOC(=O)CC(=O)Cc1ccccc1[N+](=O)[O-],316.9,0.011424712,-0.4683,-9.6032,2.72097,434.87968574361156,0.009293866,-2.5834,-9.6702,59.25475,-1.304,-10.258,3.39407,NaN,NaN,260,NaN,260,NaN,NaN
DSDDZPPCYDZLCI-UHFFFAOYSA-N,O=C(CC(=O)Cc1ccccc1[N+](=O)[O-])NC(=O)OCc1ccccc1,O=C(CC(=O)Cc1ccccc1[N+](=O)[O-])NC(=O)OCc1ccccc1,318.8,0.018769887,-0.4955,-9.4,3.94157,444.387807905031,0.045665127,-2.6989,-9.0384,101.14810,-1.237,-10.002,3.35337,NaN,NaN,291,NaN,291,NaN,NaN
ACFLOMXYCXISTN-UHFFFAOYSA-N,O=C(Cc1ccccc1[N+](=O)[O-])CC(=O)N1CCOC1=O,O=C(Cc1ccccc1[N+](=O)[O-])CC(=O)N1CCOC1=O,318.6,0.01862562,-0.6281,-9.4766,2.74752,442.16903853603304,0.034767074,-2.7918,-9.7606,69.70619,-1.259,-10.211,4.55318,NaN,NaN,260,NaN,260,NaN,NaN
SGCCXZLLRMXSFI-UHFFFAOYSA-N,CCOC(=O)CC(=O)Cc1cc(ccc1[N+](=O)[O-])OCc1ccccc1,CCOC(=O)CC(=O)Cc1cc(ccc1[N+](=O)[O-])OCc1ccccc1,314.5,0.032358851,-0.2261,-9.0219,4.11793,435.95006471696087,0.018978,-2.4854,-9.0094,171.76748,-1.028,-9.706,4.47069,NaN,NaN,308,NaN,308,NaN,NaN
RJEHQCUKTNGEHH-UHFFFAOYSA-N,O=C(Cc1ccccc1[N+](=O)[O-])CC(=O)N1CCCOC1=O,O=C(Cc1ccccc1[N+](=O)[O-])CC(=O)N1CCCOC1=O,318.8,0.018598953,-0.6642,-9.3932,3.92772,445.02583777998444,0.041852245,-2.7661,-9.6899,37.67021,-1.18,-10.119,5.4696,NaN,NaN,300,NaN,300,NaN,NaN
FJXWXHIWYZGPPD-INIZCTEOSA-N,O=C(Cc1ccccc1[N+](=O)[O-])CC(=O)N1C(=O)OC[C@@H]1Cc1ccccc1,O=C(Cc1ccccc1[N+](=O)[O-])CC(=O)N1C(=O)OC[C@@H]1Cc1ccccc1,318.4,0.020286121,-0.5674,-9.2655,1.45334,444.06947852974093,0.045170216,-2.7967,-8.822,109.54424,-1.413,-9.687,2.56839,NaN,NaN,204,NaN,204,NaN,NaN
DKVGNXDDGYJXPL-AHRVCRTOSA-N,COc1cc(cc(c1O)OC)[C@@H]1[C@@H]2C(=O)N(C(=O)C2[C@@H](c2c1c1ccccc1[nH]2)C(=O)N1C(=O)OCC1Cc1ccccc1)c1ccccc1,COc1cc(cc(c1O)OC)[C@@H]1[C@@H]2C(=O)N(C(=O)C2[C@@H](c2c1c1ccccc1[nH]2)C(=O)N1C(=O)OCC1Cc1ccccc1)c1ccccc1,257.1,0.101244512,1.0696,-7.8214,7.46442,317.4198627893079,0.008850819,-0.6442,-7.7084,104.17288,-0.287,-8.465,3.22101,NaN,NaN,292,NaN,292,NaN,NaN
DKVGNXDDGYJXPL-JXAVECMMSA-N,COc1cc(cc(c1O)OC)[C@H]1[C@H]2C(=O)N(C(=O)C2[C@H](c2c1c1ccccc1[nH]2)C(=O)N1C(=O)OCC1Cc1ccccc1)c1ccccc1,COc1cc(cc(c1O)OC)[C@H]1[C@H]2C(=O)N(C(=O)C2[C@H](c2c1c1ccccc1[nH]2)C(=O)N1C(=O)OCC1Cc1ccccc1)c1ccccc1,256.9,0.100756811,1.0566,-7.8225,7.34320,315.08055503304615,0.007465552,-0.6219,-7.7285,99.43973,-0.375,-8.491,7.02766,NaN,NaN,290,NaN,290,NaN,NaN
ODKNJVUHOIMIIZ-UHFFFAOYSA-N,OCC1OC(CC1O)n1cc(F)c(=O)[nH]c1=O,OCC1OC(CC1O)n1cc(F)c(=O)[nH]c1=O,239.2,0.282440352,0.6554,-9.1027,5.71125,310.2707667805397,0.000559796,-1.1755,-9.8749,82.50203,-0.679,-9.795,5.25273,NaN,NaN,0,NaN,0,NaN,NaN
KYBNQRONYGQZJQ-UHFFFAOYSA-N,CCCNC1=NN=C(CS1)c1ccc(cc1)Cl,CCCNC1=NN=C(CS1)c1ccc(cc1)Cl,332.5,0.129008666,0.2759,-8.0095,4.15908,353.23133448861444,0.040444823,-0.5386,-8.1955,179.39230,-1.059,-8.732,4.82603,NaN,NaN,344,17232.96,344,17232.96,NaN
PLBBOXAROSMDIZ-LJQANCHMSA-N,COc1ccc(cc1)CN(C[C@H](c1cccc(c1)C(F)(F)F)Cl)CCS(=O)(=O)C,COc1ccc(cc1)CN(C[C@H](c1cccc(c1)C(F)(F)F)Cl)CCS(=O)(=O)C,245.0,0.040468666,0.7914,-8.7367,8.64617,283.1982604054446,0.020763201,-0.1833,-8.881,271.59155,-0.748,-9.221,4.85445,NaN,NaN,230,NaN,230,NaN,NaN
LWHZODQIZIKZRG-UXIGCNINSA-N,OC[C@@H]1[C@@H](C)ON([C@@]1(C)C(=O)OC)Cc1ccccc1,OC[C@@H]1[C@@H](C)ON([C@@]1(C)C(=O)OC)Cc1ccccc1,236.5,0.002904318,1.5184,-8.2883,0.78399,279.49548783927787,0.001470952,0.0859,-8.6519,59.88276,0.23,-9.155,1.89196,NaN,NaN,215,NaN,215,NaN,NaN
JIHMDPLXHODWGC-XNRPHZJLSA-N,CCOC(=O)[C@]1(C)N(O[C@@H]([C@H]1CO)C)Cc1ccccc1,CCOC(=O)[C@]1(C)N(O[C@@H]([C@H]1CO)C)Cc1ccccc1,234.2,0.001568709,1.7302,-8.3816,1.58699,277.3695713769657,0.002641852,-0.0361,-8.7675,83.50287,0.332,-9.139,2.26528,NaN,NaN,215,NaN,215,NaN,NaN
GYEFVXFVTWJIEC-OZOXKJRCSA-N,OC[C@@H]1[C@@H](C)ON([C@@]1(C)C(=O)OCc1ccccc1)Cc1ccccc1,OC[C@@H]1[C@@H](C)ON([C@@]1(C)C(=O)OCc1ccccc1)Cc1ccccc1,233.6,0.003654771,1.2787,-8.2921,1.25453,279.0551393326664,0.002272517,0.021,-8.6995,101.80285,-0.058,-9.062,1.50008,NaN,NaN,215,NaN,215,NaN,NaN
LKFMSBVHZIPAGX-UKRRQHHQSA-N,OC[C@@H]1CON([C@@]1(C)C(=O)OCC)Cc1ccccc1,OC[C@@H]1CON([C@@]1(C)C(=O)OCC)Cc1ccccc1,235.1,0.003444578,1.4094,-8.797,1.22327,276.9358910107296,0.002752667,0.0286,-8.8012,69.00161,0.17,-9.475,0.86146,NaN,NaN,215,NaN,215,NaN,NaN
NIAFKYKPMMONQO-BFYDXBDKSA-N,CCOC(=O)[C@]1(C)N(O[C@@H]([C@H]1CO)CC)Cc1ccccc1,CCOC(=O)[C@]1(C)N(O[C@@H]([C@H]1CO)CC)Cc1ccccc1,237.0,0.002181499,1.5301,-8.2738,1.00465,279.93722828065853,0.001553602,0.1301,-8.6484,60.39082,0.258,-9.117,2.20769,NaN,NaN,215,NaN,215,NaN,NaN
RYPFXRSWARWOSF-UHFFFAOYSA-N,CC1CCN(CC1)c1ncc2c(n1)n1CCSc1nc2=O,CC1CCN(CC1)c1ncc2c(n1)n1CCSc1nc2=O,277.3,0.026934565,0.3893,-8.3224,9.39219,338.47720012422513,0.000562585,-0.6226,-8.8022,277.12509,-0.93,-9.154,9.56874,NaN,NaN,340,11780.0,340,11780.0,NaN
IFRJQLJVBYPDRQ-UHFFFAOYSA-N,O=c1nc2SCCn2c2c1cnc(n2)N1CCOCC1,O=c1nc2SCCn2c2c1cnc(n2)N1CCOCC1,277.9,0.000763804,0.2683,-8.4571,7.96185,339.2180530930333,0.000607659,-0.7026,-8.8818,148.86086,-1.016,-9.225,8.10155,NaN,NaN,330,7850.0,330,7850.0,NaN
JJRITSJWCPQMCN-UHFFFAOYSA-N,CN1CCN(CC1)c1ncc2c(n1)n1CCSc1nc2=O,CN1CCN(CC1)c1ncc2c(n1)n1CCSc1nc2=O,277.4,0.001786827,0.3532,-8.3775,9.06321,338.66210982109715,0.000565788,-0.6438,-8.8133,225.11227,-0.966,-8.859,9.30144,NaN,NaN,336,11210.0,336,11210.0,NaN
BZBFDWXNBHXPRO-UHFFFAOYSA-N,CCN1CCN(CC1)c1ncc2c(n1)n1CCSc1nc2=O,CCN1CCN(CC1)c1ncc2c(n1)n1CCSc1nc2=O,277.1,0.00058029,0.3693,-8.3517,9.16509,338.66210982109715,0.000583775,-0.6411,-8.8126,269.92184,-0.951,-9.058,8.86971,NaN,NaN,336,7830.0,336,7830.0,NaN
CKAPSXZOOQJIBF-UHFFFAOYSA-N,Clc1c(Cl)c(Cl)c(c(c1Cl)Cl)Cl,Clc1c(Cl)c(Cl)c(c(c1Cl)Cl)Cl,NaN,NaN,NaN,NaN,NaN,NaN,NaN,NaN,Nan,NaN,NaN,NaN,NaN,NaN,NaN,290.7,NaN,290.7,NaN,NaN
DBCKMJVEAUXWJJ-UHFFFAOYSA-N,Clc1c(O)ccc(c1Cl)O,Clc1c(O)ccc(c1Cl)O,263.6,0.104768029,1.0483,-8.2876,0.26360,295.834403258181,1.7077e-05,-0.4043,-9.1565,99.09461,-0.883,-9.2,0.47413,NaN,NaN,277.6,NaN,277.6,NaN,NaN
IZUPBVBPLAPZRR-UHFFFAOYSA-N,Clc1c(O)c(Cl)c(c(c1Cl)Cl)Cl,Clc1c(O)c(Cl)c(c(c1Cl)Cl)Cl,NaN,NaN,NaN,NaN,NaN,NaN,NaN,NaN,Nan,NaN,NaN,NaN,NaN,NaN,NaN,303.7,NaN,303.7,NaN,NaN
LKPLKUMXSAEKID-UHFFFAOYSA-N,Clc1c(Cl)c([N+](=O)[O-])c(c(c1Cl)Cl)Cl,Clc1c(Cl)c([N+](=O)[O-])c(c(c1Cl)Cl)Cl,NaN,NaN,NaN,NaN,NaN,NaN,NaN,NaN,Nan,NaN,NaN,NaN,NaN,NaN,NaN,301.0,NaN,301.0,NaN,NaN
UMPSXRYVXUPCOS-UHFFFAOYSA-N,Clc1c(O)cccc1Cl,Clc1c(O)cccc1Cl,245.5,0.035875623,1.118,-8.8858,1.08519,278.3034756576962,0.020644984,-0.3048,-9.4724,105.51657,-0.726,-9.696,1.709,NaN,NaN,281.2,NaN,281.2,NaN,NaN
HSQFVBWFPBKHEB-UHFFFAOYSA-N,Oc1ccc(c(c1Cl)Cl)Cl,Oc1ccc(c(c1Cl)Cl)Cl,255.0,0.046831561,0.8376,-8.7918,1.63841,286.07336964813953,1.11e-07,-0.6551,-9.736,95.01738,-1.02,-9.638,2.21514,NaN,NaN,289.5,NaN,289.5,NaN,NaN
RULKYXXCCZZKDZ-UHFFFAOYSA-N,Clc1c(O)cc(c(c1Cl)Cl)Cl,Clc1c(O)cc(c(c1Cl)Cl)Cl,258.4,0.046215205,0.605,-8.9374,1.90905,288.9401034852101,8.003e-06,-1.0307,-10.0352,68.32505,-1.287,-9.774,2.29175,NaN,NaN,299.0,NaN,299.0,NaN,NaN
RELMFMZEBKVZJC-UHFFFAOYSA-N,Clc1c(Cl)cccc1Cl,Clc1c(Cl)cccc1Cl,NaN,NaN,NaN,NaN,NaN,NaN,NaN,NaN,Nan,NaN,NaN,NaN,NaN,NaN,NaN,268.2,NaN,268.2,NaN,NaN
RFFLAFLAYFXFSW-UHFFFAOYSA-N,Clc1ccccc1Cl,Clc1ccccc1Cl,238.9,0.003004755,1.1194,-9.184,2.49873,266.8048168829431,6.7118e-05,-0.2138,-9.8217,111.46932,-0.613,-9.867,3.05224,NaN,NaN,284.8,NaN,284.8,NaN,NaN
KUWAAZMPJBFLEO-UHFFFAOYSA-N,ClN(c1ccccc1Cl)Cl,ClN(c1ccccc1Cl)Cl,314.6,0.011822835,0.414,-9.4134,2.88590,271.2408628429308,0.000622584,-0.4602,-9.6482,156.02653,-1.255,-10.212,3.73774,NaN,NaN,248.1,NaN,248.1,NaN,NaN
DADSZOFTIIETSV-UHFFFAOYSA-N,ClN(c1ccccc1)Cl,ClN(c1ccccc1)Cl,303.6,0.014116751,0.4351,-9.5806,2.34421,269.17976206144954,0.000336112,-0.2886,-9.2779,148.83359,-1.177,-10.251,3.17555,NaN,NaN,246.9,NaN,246.9,NaN,NaN
CEOCDNVZRAIOQZ-UHFFFAOYSA-N,Clc1cc(Cl)c(c(c1Cl)Cl)Cl,Clc1cc(Cl)c(c(c1Cl)Cl)Cl,NaN,NaN,NaN,NaN,NaN,NaN,NaN,NaN,Nan,NaN,NaN,NaN,NaN,NaN,NaN,287.1,NaN,287.1,NaN,NaN
KHCZSJXTDDHLGJ-UHFFFAOYSA-N,Clc1c(N)c(Cl)c(c(c1Cl)Cl)Cl,Clc1c(N)c(Cl)c(c(c1Cl)Cl)Cl,NaN,NaN,NaN,NaN,NaN,NaN,NaN,NaN,Nan,NaN,NaN,NaN,NaN,NaN,NaN,221.1,NaN,221.1,NaN,NaN
DQNOIKMHTBFYTD-UHFFFAOYSA-N,ClN(c1cccc(c1Cl)Cl)Cl,ClN(c1cccc(c1Cl)Cl)Cl,314.4,0.012035605,0.2337,-9.4753,2.54775,274.24065119554007,0.001026584,-0.6778,-9.9846,131.02582,-1.417,-10.209,3.17526,NaN,NaN,308.5,NaN,308.5,NaN,NaN
GBDZXPJXOMHESU-UHFFFAOYSA-N,Clc1c(Cl)ccc(c1Cl)Cl,Clc1c(Cl)ccc(c1Cl)Cl,NaN,NaN,NaN,NaN,NaN,NaN,NaN,NaN,Nan,NaN,NaN,NaN,NaN,NaN,NaN,229.3,NaN,229.3,NaN,NaN
STOSPPMGXZPHKP-UHFFFAOYSA-N,Oc1c(Cl)c(Cl)c(c(c1Cl)Cl)O,Oc1c(Cl)c(Cl)c(c(c1Cl)Cl)O,NaN,NaN,NaN,NaN,NaN,NaN,NaN,NaN,Nan,NaN,NaN,NaN,NaN,NaN,NaN,297.8,NaN,297.8,NaN,NaN
NTBYINQTYWZXLH-UHFFFAOYSA-N,[O-][N+](=O)c1ccc(c(c1)Cl)Cl,[O-][N+](=O)c1ccc(c(c1)Cl)Cl,315.5,1.096e-06,-0.8792,-9.8728,2.79144,426.6489965777827,3.71e-07,-3.0286,-10.6732,73.95353,-1.894,-10.527,2.85286,NaN,NaN,222.2,NaN,222.2,NaN,NaN
GYSSRZJIHXQEHQ-UHFFFAOYSA-N,O=C(C1=C(C)OCCS1)Nc1ccccc1,O=C(C1=C(C)OCCS1)Nc1ccccc1,258.2,0.45111541,1.0694,-7.9523,4.32520,313.88404659621176,0.013245918,-0.0884,-8.3669,90.58652,-0.183,-8.417,4.57347,NaN,NaN,249,NaN,249,NaN,NaN
UUKJCZNKVYDUBF-UHFFFAOYSA-N,CN1C=CC(C1(C)Cc1ccc[nH]1)(C)C,CN1C=CC(C1(C)Cc1ccc[nH]1)(C)C,223.4,0.216904033,2.5949,-7.6252,2.58533,277.1215878531597,0.17811368,1.2012,-7.4495,38.30806,1.027,-8.357,2.92685,NaN,NaN,254,NaN,254,NaN,NaN
CDAWCLOXVUBKRW-UHFFFAOYSA-N,Nc1ccccc1O,Nc1ccccc1O,258.3,0.053653766,2.0561,-7.6017,1.27527,291.7275256600086,0.031428911,0.6555,-8.0959,34.29717,0.177,-8.268,1.17577,NaN,NaN,269,NaN,269,NaN,NaN
ADVGKWPZRIDURE-UHFFFAOYSA-N,CC(=O)Nc1ccccc1O,CC(=O)Nc1ccccc1O,255.5,0.105428947,1.3083,-8.2761,4.47428,294.14993690510954,0.090700462,-0.0743,-8.3353,48.04669,-0.002,-8.624,3.78398,NaN,NaN,278,NaN,278,NaN,NaN
COVOPZQGJGUPEY-UHFFFAOYSA-N,O=C1C(O)Oc2c(N1O)cccc2,O=C1C(O)Oc2c(N1O)cccc2,257.0,0.108468621,1.0004,-8.5554,3.35114,315.00050407902353,0.007446294,-0.2183,-8.9455,92.06823,-0.594,-9.124,2.42123,NaN,NaN,253,NaN,253,NaN,NaN
PTSQWRVYIPQDJA-UHFFFAOYSA-N,O=C1COc2c(N1O)cccc2,O=C1COc2c(N1O)cccc2,259.3,0.151957931,1.1248,-8.2779,2.07403,310.1931408694112,0.009597426,-0.1097,-8.8431,73.16181,-0.481,-8.986,2.00692,NaN,NaN,280,NaN,280,NaN,NaN
ONXCBJOMYNPZNI-UHFFFAOYSA-N,Brc1nc(=O)c2c([nH]1)nc[nH]2,Brc1nc(=O)c2c([nH]1)nc[nH]2,251.0,0.001950852,0.6434,-9.0287,4.90761,331.59721424312295,0.001227223,-0.8933,-8.7847,162.78237,-0.848,-9.609,4.40163,NaN,NaN,264,NaN,264,NaN,NaN
FYAMXEPQQLNQDM-UHFFFAOYSA-N,O=P(N1CC1)(N1CC1)N1CC1,O=P(N1CC1)(N1CC1)N1CC1,NaN,NaN,NaN,NaN,NaN,NaN,NaN,NaN,Nan,NaN,NaN,NaN,NaN,NaN,NaN,260,NaN,260,NaN,NaN
YYWRFCWSNYWMTQ-UHFFFAOYSA-N,F[P-](F)(F)(F)(F)F.F[P-](F)(F)(F)(F)F.[Fe+2],F[P-](F)(F)(F)(F)F.F[P-](F)(F)(F)(F)F.[Fe+2],NaN,NaN,NaN,NaN,NaN,NaN,NaN,NaN,Nan,NaN,NaN,NaN,NaN,NaN,NaN,336,2100,336,2100,NaN
YPWFISCTZQNZAU-UHFFFAOYSA-N,C1CCCSC1,C1CCCSC1,NaN,NaN,NaN,NaN,NaN,NaN,NaN,NaN,Nan,NaN,NaN,NaN,NaN,NaN,NaN,250,NaN,250,NaN,NaN
XMBWDFGMSWQBCA-UHFFFAOYSA-M,[I-],[I-],NaN,NaN,NaN,NaN,NaN,NaN,NaN,NaN,Nan,NaN,NaN,NaN,NaN,NaN,NaN,230,NaN,230,NaN,NaN
APVPOHHVBBYQAV-UHFFFAOYSA-N,CCCCCCCCCCCCCCCCCC(=O)NS(=O)(=O)c1ccc(cc1)N,C(=O)NS(=O)(=O)c1ccc(cc1)N,257.6,0.024115478,0.7327,-8.7182,7.60210,292.208810760084,0.000901297,-0.5793,-9.12,123.42326,-0.629,-9.351,8.65775,NaN,NaN,269,NaN,269,NaN,NaN
MKSZKMUBGCIPAU-LLVKDONJSA-N,CCOC(=O)[C@H](N=[N+]=[N-])CCc1ccccc1,CCOC(=O)[C@H](N=[N+]=[N-])CCc1ccccc1,262.9,0.001716659,1.3116,-9.1111,3.97787,539.7657745124234,1.532e-06,-0.7224,-8.6772,101.65043,-0.039,-9.642,4.16553,NaN,NaN,220,NaN,220,NaN,NaN
JNJCEALGCZSIGB-VIFPVBQESA-M,O[C@H](C(=O)[O-])CCc1ccccc1,O[C@H](C(=O)[O-])CCc1ccccc1,NaN,NaN,NaN,NaN,NaN,NaN,NaN,NaN,Nan,NaN,NaN,NaN,NaN,NaN,NaN,220,NaN,220,NaN,NaN
MAXUIRLVHXMAIP-JTQLQIEISA-M,[O-]C(=O)[C@@H](OS(=O)(=O)C)CCc1ccccc1,[O-]C(=O)[C@@H](OS(=O)(=O)C)CCc1ccccc1,NaN,NaN,NaN,NaN,NaN,NaN,NaN,NaN,Nan,NaN,NaN,NaN,NaN,NaN,NaN,220,NaN,220,NaN,NaN
ILMWHLYQRWFIJV-UKRRQHHQSA-N,CCN1CCO[C@H]2[C@H]1Cc1c[nH]c3c1c2ccc3,CCN1CCO[C@H]2[C@H]1Cc1c[nH]c3c1c2ccc3,267.0,0.123622668,1.6091,-7.5787,2.64292,303.36236458405597,0.003578996,0.4727,-7.5945,42.05792,0.061,-8.303,2.55377,NaN,NaN,411,NaN,411,NaN,CH 2 Cl 2
JKCKZDCMYUNYPL-UHFFFAOYSA-N,CCCCCCC1=C2C=CC(=N2)C(=c2ccc(=C(C3=NC(=C(c4[nH]c1cc4)c1ccccc1)C=C3)c1cccc(c1C(=O)O)CCO)[nH]2)c1ccccc1,C1=C2C=CC(=N2)C(=c2ccc(=C(C3=NC(=C(c4[nH]c1cc4)c1ccccc1)C=C3)c1cccc(c1C(=O)O)CCO)[nH]2)c1ccccc1,633.2,0.007273575,-1.2974,-7.013,4.06173,608.6607678227966,0.029847352,-1.4783,-6.8403,98.48338,-1.933,-8.123,4.1746,NaN,NaN,350,NaN,350,NaN,NaN
BFPYWIDHMRZLRN-SLHNCBLASA-N,C#C[C@]1(O)CC[C@@H]2[C@]1(C)CC[C@H]1[C@H]2CCc2c1ccc(c2)O,C#C[C@]1(O)CC[C@@H]2[C@]1(C)CC[C@H]1[C@H]2CCc2c1ccc(c2)O,251.3,0.049789674,1.726,-8.1367,1.20798,285.74371607629325,0.021271765,0.6074,-8.3929,45.54736,0.171,-8.827,1.4466,NaN,NaN,0,NaN,0,NaN,NaN
FOYVTVSSAMSORJ-UHFFFAOYSA-N,CCN1CCCc2c1cc1[o+]c3cc4c(cc3nc1c2)C(CS(=O)(=O)[O-])CC(N4CCCC(=O)O)(C)C,CCN1Cc2c1cc1[o+]c3cc4c(cc3nc1c2)C(CS(=O)(=O)[O-])CC(N4C(=O)O)(C)C,428.0,1.214695627,-1.9169,-7.9319,15.85421,522.0387301284364,0.719083893,-2.457,-7.866,276.10103,-2.049,-8.747,9.6626,477.98370411056493,0.9715977993,663.0,125000,661.0,100000,NaN
DULHUHYIIPIGHV-UHFFFAOYSA-N,OC(=O)C1=CC=CC1=C,OC(=O)C1=CC=CC1=C,NaN,NaN,NaN,NaN,NaN,NaN,NaN,NaN,Nan,NaN,NaN,NaN,NaN,NaN,NaN,633.0,NaN,449.0,NaN,NaN
RRUDCFGSUDOHDG-UHFFFAOYSA-N,CC(=O)NO,CC(=O)NO,NaN,NaN,NaN,NaN,NaN,NaN,NaN,NaN,Nan,NaN,NaN,NaN,NaN,NaN,NaN,777,NaN,777,NaN,NaN
LRUUNMYPIBZBQH-UHFFFAOYSA-N,Clc1ccc(cc1Cl)n1oc(=O)n(c1=O)C,Clc1ccc(cc1Cl)n1oc(=O)n(c1=O)C,254.8,0.01911719,0.6892,-8.7987,1.82614,280.3169758207182,0.00741742,-1.032,-9.6305,140.38402,-1.293,-9.732,3.42454,NaN,NaN,NaN,NaN,NaN,NaN,NaN
FCTYXHRQJPRWCB-KRWDZBQOSA-N,COc1ccc2c(c1)c1c(COC(=O)[C@@H](NC(=O)OCc3ccccc3)C)cc(=O)n(c1cc2)C,COc1ccc2c(c1)c1c(COC(=O)[C@@H](NC(=O)OCc3ccccc3)C)cc(=O)n(c1cc2)C,320.6,0.170744364,0.004,-7.9717,5.20912,368.45229838188305,0.223408304,-0.9905,-7.989,93.85717,-1.096,-8.702,4.58789,NaN,NaN,340,2630.2679918953813,340,2630.2679918953813,NaN
NCVXXFADIJTVKC-UHFFFAOYSA-N,COC(=O)CCC(C(=O)OCc1cc(=O)n(c2c1c1cc(OC)ccc1cc2)C)NC(=O)OCc1ccccc1,COC(=O)CCC(C(=O)OCc1cc(=O)n(c2c1c1cc(OC)ccc1cc2)C)NC(=O)OCc1ccccc1,325.6,0.152860261,-0.1054,-8.0127,6.78394,375.36844809416795,0.19617753,-1.0899,-8.008,134.21206,-1.114,-8.661,8.95119,NaN,NaN,340,3090.295432513592,340,3090.295432513592,NaN
XDPXDZYWRDBHTR-YPMHNXCESA-N,C[C@@H]1C=CC[C@H](O1)OCc1ccccc1,C[C@@H]1C=CC[C@H](O1)OCc1ccccc1,231.8,0.001838492,1.5971,-8.9234,0.13505,270.6487631641643,0.006533571,0.7567,-8.6031,34.82868,0.192,-9.582,0.1755,NaN,NaN,254,NaN,254,NaN,NaN
UMIPWJGWASORKV-UHFFFAOYSA-N,CCCCCCC#C,CCCCCCC#C,NaN,NaN,NaN,NaN,NaN,NaN,NaN,NaN,Nan,NaN,NaN,NaN,NaN,NaN,NaN,252,NaN,252,NaN,NaN
PHEYDGICXQSBEP-UHFFFAOYSA-N,CC(C#Cc1ccc2c(n1)cccc2)(O)C,CC(C#Cc1ccc2c(n1)cccc2)(O)C,285.8,0.083266747,0.01,-8.5863,2.69546,329.4823236925423,0.254342632,-0.5622,-8.1598,31.10593,-1.005,-9.331,1.89898,NaN,NaN,210,NaN,210,NaN,NaN
WHCWNQQNHXIOJL-UHFFFAOYSA-N,OCC#Cc1ccc2c(n1)cccc2,OCC#Cc1ccc2c(n1)cccc2,285.4,0.073856754,-0.0834,-8.6775,2.19277,328.34798306542285,0.0261924,-0.6191,-8.2627,68.72865,-1.092,-9.412,2.65085,NaN,NaN,210,NaN,210,NaN,NaN
UJPQWEHDJAJEHR-UHFFFAOYSA-N,OCCC#Cc1ccc2c(n1)cccc2,OCCC#Cc1ccc2c(n1)cccc2,285.7,0.07984476,-0.0267,-8.6105,3.25802,334.5499147477163,0.009888622,-0.5788,-8.1818,44.10881,-0.963,-9.272,3.367,NaN,NaN,250,NaN,250,NaN,NaN
HGWSRHCWLTVPFC-UHFFFAOYSA-N,OCCCC#Cc1ccc2c(n1)cccc2,OC#Cc1ccc2c(n1)cccc2,283.1,0.103092065,0.2332,-8.2921,0.20109,330.4482899933467,0.270251841,-0.6082,-8.1799,87.05035,-0.877,-9.095,0.36266,NaN,NaN,250,NaN,250,NaN,NaN
CEWLGCXTQSXWGP-UHFFFAOYSA-N,OCCCCC#Cc1ccc2c(n1)cccc2,OC#Cc1ccc2c(n1)cccc2,283.2,0.104040303,0.2323,-8.2913,0.19809,330.4482899933467,0.270551145,-0.6079,-8.1801,87.04646,-0.876,-9.095,0.36535,NaN,NaN,210,NaN,210,NaN,NaN
SCTUQFNDUPWVSS-UHFFFAOYSA-N,CC(CC#Cc1ccc2c(n1)cccc2)O,CC(CC#Cc1ccc2c(n1)cccc2)O,286.1,0.08284929,-0.0107,-8.5946,2.99754,337.1884645240785,0.004852342,-0.5729,-8.163,29.18417,-0.933,-9.241,3.18743,NaN,NaN,210,NaN,210,NaN,NaN
QOEJQMTZPQUDMH-UHFFFAOYSA-N,CCCCC#Cc1ccc2c(n1)cccc2,C#Cc1ccc2c(n1)cccc2,283.9,0.055875592,-0.065,-8.7174,2.24529,323.80307758031773,0.215768962,-0.6321,-8.3344,24.52488,-1.004,-9.379,2.32323,NaN,NaN,210,NaN,210,NaN,NaN
GTVXCVXPQLNDKO-UHFFFAOYSA-N,CCCCCC#Cc1ccc2c(n1)cccc2,C#Cc1ccc2c(n1)cccc2,283.9,0.055918077,-0.0628,-8.7145,2.24183,323.887665636112,0.215853529,-0.6325,-8.3341,24.53550,-1.005,-9.378,2.32437,NaN,NaN,210,NaN,210,NaN,NaN
LCOLQHTVPPKGBJ-UHFFFAOYSA-N,CCCCCCC#Cc1ccc2c(n1)cccc2,C#Cc1ccc2c(n1)cccc2,284.0,0.054896668,-0.0667,-8.7207,2.23499,323.887665636112,0.21609229,-0.6328,-8.3338,24.54676,-1.005,-9.378,2.32315,NaN,NaN,249,NaN,249,NaN,NaN
OLIGWEDUXXPBHS-UHFFFAOYSA-N,c1ccc(cc1)C#Cc1ccc2c(n1)cccc2,c1ccc(cc1)C#Cc1ccc2c(n1)cccc2,294.6,0.585667608,-0.1886,-8.1836,1.62299,356.3788399123416,0.030674327,-0.6855,-7.8631,12.43643,-1.08,-9.046,1.78401,NaN,NaN,210,NaN,210,NaN,NaN
MICILLROTRZHHS-UHFFFAOYSA-N,Cc1ccc(cc1)CCc1ccc2c(n1)cccc2,Cc1ccc(cc1)CCc1ccc2c(n1)cccc2,277.4,0.041130118,0.4127,-8.502,1.88486,316.12493219149326,0.142512492,-0.3423,-8.236,45.97080,-0.739,-9.153,1.73948,NaN,NaN,250,NaN,250,NaN,NaN
WNEXJUUGFXHNGH-UHFFFAOYSA-N,CCCCCc1ccc(cc1)C#Cc1ccc2c(n1)cccc2,Cc1ccc(cc1)C#Cc1ccc2c(n1)cccc2,296.9,0.700659876,-0.134,-8.0311,1.49878,354.13938419167,0.143551421,-0.6024,-7.7984,46.42830,-0.986,-8.948,1.70042,NaN,NaN,213,NaN,213,NaN,NaN
GMRFSSURVOZQBN-UHFFFAOYSA-N,Fc1cccc(c1)C#Cc1ccc2c(n1)cccc2,Fc1cccc(c1)C#Cc1ccc2c(n1)cccc2,294.8,0.573016737,-0.3225,-8.3216,3.20645,345.0715235332693,0.011150224,-0.7263,-8.1197,112.03837,-1.276,-9.211,2.09666,NaN,NaN,210,NaN,210,NaN,NaN
GTCSSSWUHVFWJX-UHFFFAOYSA-N,c1ccc(cc1)CCC#Cc1ccc2c(n1)cccc2,c1ccc(cc1)CCC#Cc1ccc2c(n1)cccc2,285.7,0.100356728,0.0997,-8.4818,1.56921,328.8705527997445,0.275300771,-0.5235,-8.124,44.22315,-0.876,-9.179,1.8243,NaN,NaN,210,NaN,210,NaN,NaN