inchikey,smi_pre,smi_post,lambda_sTDA (nm),f1_sTDA,lumo_dft,homo_dft,dmom_dft (D),lambda_z (nm),f1_z,lumo_z,homo_z,dmom_z (D),lumo_mopac,homo_mopac,dmom_mopac (D),lambda_tddft (nm),f1_tddft,lambda_exp_max (nm),epsilon_exp_max ,lambda_exp_min (nm),epsilon_exp_min ,solvent
RZKBEYLACBXTDD-UHFFFAOYSA-N,c1ccc(cc1)N(c1ccccc1)c1ccc(cc1)c1nc2c(s1)cccc2,c1ccc(cc1)N(c1ccccc1)c1ccc(cc1)c1nc2c(s1)cccc2,323.9,1.101582768,0.1461,-7.2909,1.75261,369.5505168569409,0.748526511,-0.6862,-7.3907,157.52746,-1.093,-8.104,1.34247,334.2973280016163,1.0211570484,310,NaN,310,NaN,methanol
QQBMQXHTBOOQGT-UHFFFAOYSA-N,CCCn1c(Nc2c(C)cccc2C)nc2c1cc1oc(=O)c(c(c1c2)C)C(=O)N,CCCn1c(Nc2c(C)cccc2C)nc2c1cc1oc(=O)c(c(c1c2)C)C(=O)N,309.5,0.429678936,-0.0584,-7.8995,8.51945,372.4367630084219,0.365989498,-1.2733,-8.1659,271.00880,-1.326,-8.846,8.06639,NaN,NaN,341,NaN,341,NaN,ethanol
YJSKEQJZATYELD-UHFFFAOYSA-N,Oc1ccccc1N=Cc1[nH]ccc1,Oc1ccccc1N=Cc1[nH]ccc1,314.4,0.745477119,0.1151,-7.7088,2.33217,364.6594070750108,0.664658262,-0.6672,-7.6364,36.33201,-0.845,-8.604,0.86145,NaN,NaN,356,NaN,356,NaN,NaN
FFBHBXDLSGCMJA-UHFFFAOYSA-N,CCCCCCCCn1c(=O)c2c(c1c1ccccc1)c(=O)n(c2c1ccc(s1)Br)CCCCCCCC,Cn1c(=O)c2c(c1c1ccccc1)c(=O)n(c2c1ccc(s1)Br)C,418.0,0.79999582,-1.0129,-7.3328,1.41098,442.16903853603304,0.553139828,-1.6567,-7.8588,572.04307,-1.477,-8.376,1.40379,NaN,NaN,504,NaN,504,NaN,NaN
MTQRNUJLIKFWIC-UHFFFAOYSA-N,COC(=O)CCCCCn1c(=O)c2cccc3c2c(c1=O)ccc3Nc1cnccn1,COC(=O)Cn1c(=O)c2cccc3c2c(c1=O)ccc3Nc1cnccn1,346.7,0.551357048,-0.9941,-8.2859,6.59854,373.1092338414194,0.51629687,-1.7486,-8.3613,112.04631,-1.827,-9.121,4.64799,NaN,NaN,425.0,NaN,411.0,NaN,DMSO
GYALHDOYIHUCQY-UHFFFAOYSA-N,CCOC(=O)C1=C(NC(=O)C1=CC1=CCC(=C=O)C=C1)c1ccccc1,CCOC(=O)C1=C(NC(=O)C1=CC1=CCC(=C=O)C=C1)c1ccccc1,372.6,0.013198347,-0.3738,-7.6359,2.33252,550.5515026887374,2.1228e-05,-1.0537,-7.6785,81.31913,-1.127,-8.297,3.50532,NaN,NaN,433.0,NaN,422.0,NaN,DMSO
AIYDSHYGTGZCIR-KRWDZBQOSA-N,CCOC(=O)O[C@H](c1ccccc1)C=Cc1ccccc1,CCOC(=O)O[C@H](c1ccccc1)C=Cc1ccccc1,252.8,0.390447942,0.85,-8.3924,0.84605,276.31869490863306,0.005575363,0.0612,-8.1406,78.21733,-0.169,-9.298,0.93687,NaN,NaN,NaN,NaN,NaN,NaN,NaN
OKCVRQPIRLKABY-UHFFFAOYSA-N,N#Cc1cnn2c1nc(C)c1c2N(CC1)c1ccc(cc1)Br,N#Cc1cnn2c1nc(C)c1c2N(CC1)c1ccc(cc1)Br,288.1,0.456957335,0.3949,-7.9968,9.15976,379.9699614020952,0.184124232,-0.8409,-7.98,373.03837,-1.125,-8.801,9.76375,NaN,NaN,371,NaN,371,NaN,NaN
ZAKDOWSPRRMAAZ-UHFFFAOYSA-N,COc1ccc(cc1)n1c(N=Nc2nc3c(s2)cccc3)ccc1c1cccs1,COc1ccc(cc1)n1c(N=Nc2nc3c(s2)cccc3)ccc1c1cccs1,453.6,0.000475634,-0.9207,-7.4508,3.26090,548.8454998030264,0.003860375,-1.767,-7.445,139.72802,-1.505,-8.622,3.1931,NaN,NaN,530.0,NaN,486.0,NaN,DMSO
DWLOOYQKOADNER-UHFFFAOYSA-N,CCN(c1ccc(c(c1)O)c1[nH]c2c(n1)c1c(=O)[nH][nH]c(=O)c1cc2)CC,CCN(c1ccc(c(c1)O)c1[nH]c2c(n1)c1c(=O)[nH][nH]c(=O)c1cc2)CC,316.6,0.99447176,-0.0322,-7.3548,5.71995,384.8050850574291,0.62859389,-1.1769,-7.8067,286.03231,-1.281,-8.349,7.32851,336.42903700984846,0.9723890685,520.0,NaN,342.0,NaN,NaN
WKJMQIFQKCNLPE-VWLOTQADSA-N,COC(=O)[C@H](Cc1ccc2c(c1)nc(o2)c1ccc2c3c1ccc1c3c(cc2)ccc1)NC(=O)OC(C)(C)C,COC(=O)[C@H](Cc1ccc2c(c1)nc(o2)c1ccc2c3c1ccc1c3c(cc2)ccc1)NC(=O)OC(C)(C)C,354.4,0.811730364,-0.5847,-7.5678,5.27183,389.2753482119424,0.813002652,-1.1822,-7.4526,177.25473,-1.597,-8.499,4.84453,352.03780064521834,0.8915418204,428.0,42657.95188015926,373.0,30902.95432513592,methanol
JZDKKTZCLFGUNR-UHFFFAOYSA-N,[O-][N+](=O)c1ccc2c(c1)CCC1(O2)N(C)c2c(C1(C)C)cc(cc2)C(F)(F)F,[O-][N+](=O)c1ccc2c(c1)CCC1(O2)N(C)c2c(C1(C)C)cc(cc2)C(F)(F)F,313.4,2.001e-06,-0.2637,-8.3397,5.36619,423.73273549386073,0.000126144,-2.5122,-8.6397,175.84789,-1.137,-9.216,5.09055,NaN,NaN,205,NaN,205,NaN,CH 3 CN
NCKJIJSEWKIXAT-UHFFFAOYSA-N,c1ccc(cc1)P(c1ccccc1)C=CP(c1ccccc1)c1ccccc1,c1ccc(cc1)P(c1ccccc1)C=CP(c1ccccc1)c1ccccc1,259.2,0.276543636,0.8961,-8.0429,2.01719,268.3059909229683,6.81e-06,0.5945,-8.6282,71.24990,-0.657,-8.531,5.39852,NaN,NaN,445,NaN,445,NaN,dichloromethane
OOGNNESJHKIIAF-UHFFFAOYSA-N,CCN(c1ccc2c(c1)oc1c(n2)c2cc(ccc2c(=O)c1)C1=CC(NC1(C)C)(C)C)CC,CCN(c1ccc2c(c1)oc1c(n2)c2cc(ccc2c(=O)c1)C1=CC(NC1(C)C)(C)C)CC,382.2,1.100699607,-0.7974,-7.3465,8.94996,468.39515831319864,0.69919433,-1.7588,-7.4396,144.64393,-1.358,-8.171,10.10271,NaN,NaN,564.0,NaN,525.0,NaN,Dioxane
ILFQYWDKJRPTLQ-UHFFFAOYSA-N,Brc1ccc2c(c1)CCc1c2c(nc2c1c1ccc(cc1CC2)Br)c1ccccc1,Brc1ccc2c(c1)CCc1c2c(nc2c1c1ccc(cc1CC2)Br)c1ccccc1,291.5,0.390670219,0.1038,-8.0228,0.66777,334.18921403100717,0.394512364,-0.4652,-7.7968,374.07973,-0.985,-8.89,0.70611,NaN,NaN,343.0,99700.0,293.0,37900.0,chloroform
IVLIWLXSSYESGC-UHFFFAOYSA-N,CCOC(=O)c1c(N)sc(c1c1ccccc1)N=Nc1ccccc1,CCOC(=O)c1c(N)sc(c1c1ccccc1)N=Nc1ccccc1,448.8,0.000493531,-0.3475,-7.5011,1.01922,545.225146901951,0.000576019,-1.304,-7.6265,185.93520,-1.128,-8.429,1.08666,NaN,NaN,468.0,NaN,448.0,NaN,DMSO
IUBSYMUCCVWXPE-UHFFFAOYSA-N,COCCc1ccc(cc1)OCC(CNC(C)C)O,COCCc1ccc(cc1)OCC(CNC(C)C)O,247.2,0.046065301,1.8978,-8.0534,2.86379,282.1028405130914,0.033922615,0.7443,-8.2545,62.93441,0.135,-8.868,3.21586,NaN,NaN,222,NaN,222,NaN,NaN
SNWHRMOVUDPXGB-UHFFFAOYSA-N,C(=Cc1ccc(cc1)C=CSC=C(c1ccccc1)c1ccccc1)SC=C(c1ccccc1)c1ccccc1,C(=Cc1ccc(cc1)C=CSC=C(c1ccccc1)c1ccccc1)SC=C(c1ccccc1)c1ccccc1,337.9,1.448118052,0.1387,-7.2529,0.38950,297.60969372420465,0.592685775,0.1079,-7.7324,40.01185,-0.485,-8.002,0.82997,351.0112479736126,1.4767791328,366,NaN,366,NaN,CH 2 Cl 2
COSOUWSZFHWATE-VIFPVBQESA-N,N[C@H](C(=O)OCc1ccccc1)CC(=O)N,N[C@H](C(=O)OCc1ccccc1)CC(=O)N,230.6,0.001883063,1.1524,-9.3912,3.41849,284.62855464991657,0.000808238,-0.0701,-9.1255,66.07543,-0.413,-9.946,4.05602,NaN,NaN,330.0,NaN,268.0,NaN,EtOH
VBEAYDMVFLADHJ-UHFFFAOYSA-N,c1ccc2c(c1)c(sc2c1csc2c1cccc2)c1ccc(s1)c1ccc(s1)c1sc(c2c1cccc2)c1csc2c1cccc2,c1ccc2c(c1)c(sc2c1csc2c1cccc2)c1ccc(s1)c1ccc(s1)c1sc(c2c1cccc2)c1csc2c1cccc2,425.1,1.964045494,-0.5247,-6.8978,1.30741,517.8955656036076,0.782974013,-1.1043,-6.7347,247.40511,-1.472,-8.162,1.62403,463.4230134157115,1.6790185806,615,NaN,615,NaN,CH 2 Cl
UKDVLXJPIQCSNQ-UHFFFAOYSA-N,CCCCCCCCCCCCOc1cc(ccc1OCCCCCCCCCCCC)C#Cc1ccc(c2c1nsn2)C#Cc1ccc(c(c1)OCCCCCCCCCCCC)OCCCCCCCCCCCC,COc1cc(ccc1OC)C#Cc1ccc(c2c1nsn2)C#Cc1ccc(c(c1)OC)OC,400.4,1.369888963,-1.0903,-7.5039,1.34516,546.1858960594875,0.60064589,-1.9919,-7.3488,112.98791,-1.863,-8.261,1.15286,429.81416144089116,1.0902038281,445.0,NaN,439.0,NaN,Dichloromethane
YWUOOPNIQOUJHJ-UHFFFAOYSA-N,O=C(Nc1cnc2c(c1)cccc2)Nc1ccccc1,O=C(Nc1cnc2c(c1)cccc2)Nc1ccccc1,288.8,0.101606972,0.3997,-8.2181,6.12051,324.1416951777873,0.179076205,-0.4446,-8.162,70.85512,-0.848,-8.875,5.8825,NaN,NaN,393.0,NaN,331.0,NaN,NaN
SERARPRVBWDEBA-UHFFFAOYSA-N,Oc1ccccc1C=NNc1ccccc1,Oc1ccccc1C=NNc1ccccc1,304.4,0.834717449,0.4702,-7.4959,3.03556,321.03624651865266,0.441511196,-0.4637,-7.9514,14.31289,-0.596,-8.464,2.8284,316.5850241535108,0.7079144622,1800,NaN,1800,NaN,NaN
VZBSLWVITSJCMT-UHFFFAOYSA-N,O=c1ccc2c(o1)ccc(c2)N=Cc1ccccc1O,O=c1ccc2c(o1)ccc(c2)N=Cc1ccccc1O,302.5,0.645739098,-0.2685,-8.3404,4.30828,347.68423557348194,0.039086182,-1.0522,-8.4973,115.35571,-1.281,-9.245,4.82159,NaN,NaN,344,16100.000000000002,344,16100.000000000002,NaN
DLLLCPFNFKMEHB-UHFFFAOYSA-N,CCCCc1cc2n(nc(c2c2n1c1ncccc1n2)C)c1ccccc1,Cc1cc2n(nc(c2c2n1c1ncccc1n2)C)c1ccccc1,291.9,0.080206537,0.4803,-7.8877,2.82098,362.3150157963286,0.185021099,-0.6008,-7.5943,44.48115,-0.895,-8.688,3.45864,NaN,NaN,311.0,NaN,209.0,NaN,NaN
IBRSPNWMMJNYMR-UHFFFAOYSA-N,Brc1ccc(cc1)n1cccc1,Brc1ccc(cc1)n1cccc1,248.1,0.009530645,0.9801,-8.4699,0.32818,282.93974989845657,0.007321001,-0.0046,-8.2502,282.27108,-0.795,-9.033,0.14366,NaN,NaN,315,NaN,315,NaN,CHCl3
JFCIPAPGMWFCTH-UHFFFAOYSA-N,Brc1ccc2c(c1)nc1c(n2)[nH]c2c([nH]1)nccc2,Brc1ccc2c(c1)nc1c(n2)[nH]c2c([nH]1)nccc2,331.2,0.761654993,0.0754,-7.4409,5.05052,386.48440899471217,0.583397433,-0.9615,-7.706,358.65737,-1.31,-8.225,4.81724,NaN,NaN,409,NaN,409,NaN,NaN
JQFNNKKJVDIDNM-UHFFFAOYSA-N,Nc1ccc(cc1)c1nnc(n1c1ccc(cc1)C(c1ccccc1)(c1ccccc1)c1ccccc1)c1ccc(cc1)N,Nc1ccc(cc1)c1nnc(n1c1ccc(cc1)C(c1ccccc1)(c1ccccc1)c1ccccc1)c1ccc(cc1)N,269.6,0.928083062,0.8568,-7.2874,5.95792,327.7404134430443,0.466312871,-0.1757,-7.5304,158.41321,-0.46,-8.254,7.52857,NaN,NaN,303,NaN,303,NaN,NaN
JKEJTNCQIAHDRG-UHFFFAOYSA-N,CCCCCCCCCCCCC1(CCCCCCCCCCCC)c2cc(ccc2c2c1cc(cc2)[N+](=O)[O-])c1ccc(s1)c1ccc(s1)c1cccs1,C1(C)c2cc(ccc2c2c1cc(cc2)[N+](=O)[O-])c1ccc(s1)c1ccc(s1)c1cccs1,364.6,1.995107253,-0.7584,-7.4512,5.98207,477.7811113892241,1.21699328,-2.3991,-7.1033,162.62315,-1.554,-8.876,6.05747,395.50910108855254,1.6859902943,259,NaN,259,NaN,NaN
IVTDLCOZGLBWDB-UHFFFAOYSA-N,Cc1ccc(cc1)Cn1c(C=Cc2ccco2)nc(c1c1ccco1)c1ccco1,Cc1ccc(cc1)Cn1c(C=Cc2ccco2)nc(c1c1ccco1)c1ccco1,317.9,1.415519002,0.363,-7.0159,2.81916,435.490686355826,0.720866191,-0.7266,-6.6829,85.13907,-0.759,-8.133,4.69506,341.79906547179644,1.0248687106,342,NaN,342,NaN,NaN
DKRPSSOODLBKPQ-UHFFFAOYSA-N,CC(=O)Nc1ccc(cc1)N=Nc1ccc(c2c1cccn2)O,CC(=O)Nc1ccc(cc1)N=Nc1ccc(c2c1cccn2)O,429.8,0.000132786,-0.6198,-7.6464,2.75884,543.7903438837881,0.033927551,-1.2664,-7.7532,58.25231,-1.351,-8.47,4.76503,NaN,NaN,417.0,NaN,394.0,NaN,DMSO
GAQOWKIKJDEWIC-UHFFFAOYSA-N,CCOC(=O)C1C(=O)C=C(CC1c1ccccc1)c1ccco1,CCOC(=O)C1C(=O)C=C(CC1c1ccccc1)c1ccco1,309.5,0.001603009,-0.0864,-8.3952,4.55994,368.1241045294052,0.002060595,-1.1158,-8.2603,106.22073,-1.047,-9.389,4.66336,NaN,NaN,332.0,NaN,332.0,NaN,NaN
VNYCDXZQAGFFIQ-UHFFFAOYSA-N,O=C1CSC(=Nc2ccccc2)N1Cc1c2ccccc2nc2c1cccc2,O=C1CSC(=Nc2ccccc2)N1Cc1c2ccccc2nc2c1cccc2,355.3,0.130283179,-0.5106,-7.9449,2.38790,363.3769003678302,0.154531763,-0.9818,-7.7057,129.41736,-1.301,-8.654,3.09333,NaN,NaN,370,NaN,370,NaN,NaN
ZCIYGPKYSFSCEA-UHFFFAOYSA-N,COc1ccc2c(c1)oc(=O)cc2COc1ccccc1,COc1ccc2c(c1)oc(=O)cc2COc1ccccc1,280.2,0.3532893,0.0973,-8.3782,4.28123,330.4482899933467,0.357908848,-0.9696,-8.5112,110.71918,-0.992,-9.215,4.93471,NaN,NaN,323,NaN,323,NaN,NaN
YMJNLLQGJMPPAZ-UHFFFAOYSA-N,CCN1C(=O)C(=CC=CC=c2c3cccc4c3c(n2Cc2ccccc2)ccc4)C(=O)N(C1=S)CC,CCN1C(=O)C(=CC=CC=c2c3cccc4c3c(n2Cc2ccccc2)ccc4)C(=O)N(C1=S)CC,457.7,1.994785402,-1.5006,-7.2413,8.87771,506.8855208728686,1.24579893,-2.0386,-7.51,308.34668,-1.979,-8.233,10.07026,505.047834979997,1.6059836771,707.0,NaN,617.0,NaN,Toluene
GLOUUEFNVRSYKQ-UHFFFAOYSA-N,N#CC(=Cc1ccc2c(n1)ccc(c2)N(c1ccccc1)c1ccccc1)C(=O)O,N#CC(=Cc1ccc2c(n1)ccc(c2)N(c1ccccc1)c1ccccc1)C(=O)O,369.9,0.721168478,-1.0301,-7.5115,5.60157,413.14294703600024,0.568030424,-1.7261,-7.4917,299.09463,-1.767,-8.271,5.53337,NaN,NaN,441,NaN,441,NaN,NaN
SNUBXECULZASJK-UHFFFAOYSA-N,Oc1ccc(cc1)C=C1N=C(N(C1=O)Cc1ccccc1)c1ccccc1,Oc1ccc(cc1)C=C1N=C(N(C1=O)Cc1ccccc1)c1ccccc1,331.1,1.103476091,-0.3677,-7.6509,4.56973,357.92205082420224,0.795030488,-0.9954,-7.8854,108.83542,-1.153,-8.641,3.93912,358.2322826039857,0.8280742454,393.0,NaN,393.0,NaN,NaN
YTVNOVQHSGMMOV-UHFFFAOYSA-N,O=C1OC(=O)c2c3c1ccc1c3c(cc2)C(=O)OC1=O,O=C1OC(=O)c2c3c1ccc1c3c(cc2)C(=O)OC1=O,325.1,0.36091059,-2.3525,-9.9299,0.00009,337.9236805819124,0.479721563,-2.9916,-9.9781,0.00476,-3.007,-10.824,0.00147,NaN,NaN,NaN,NaN,NaN,NaN,NaN
SQFONLULGFXJAA-UHFFFAOYSA-N,CCCCn1c2ccccc2c2c1cccc2,Cn1c2ccccc2c2c1cccc2,289.6,0.046168706,0.9114,-7.672,1.82963,320.70408278712796,0.019048887,0.0911,-7.8097,2.37929,-0.272,-8.155,2.15174,NaN,NaN,332,3500.0,332,3500.0,NaN
IMSXANIQEBOSIW-UHFFFAOYSA-N,OCCOc1cc(C)c(cc1C)C=Cc1ccc(cc1[N+](=O)[O-])[N+](=O)[O-],OCCOc1cc(C)c(cc1C)C=Cc1ccc(cc1[N+](=O)[O-])[N+](=O)[O-],338.1,0.084152174,-1.0175,-8.1856,3.98421,600.4077404624875,0.000220636,-2.9536,-8.3603,156.44949,-1.804,-8.942,4.35793,NaN,NaN,417.0,NaN,405.0,NaN,MeOH
ASUHVWRGOXRCLO-UHFFFAOYSA-N,COc1ccc2c(c1)c1sccc1[nH]2,COc1ccc2c(c1)c1sccc1[nH]2,282.1,0.118455056,1.0021,-7.5077,1.61558,360.3144388419171,0.399521235,-0.2187,-7.3334,62.48552,-0.626,-7.981,1.2877,NaN,NaN,250,NaN,250,NaN,DMSO
OVSPUODMYBNFIQ-NYFMKLKXSA-N,COC(=O)[C@H](c1ccc(cc1)Cl)[C@@H](C=C(c1ccccc1)O[Si](C(C)(C)C)(c1ccccc1)c1ccccc1)C,COC(=O)[C@H](c1ccc(cc1)Cl)[C@@H](C=C(c1ccccc1)O[Si](C(C)(C)C)(c1ccccc1)c1ccccc1)C,242.4,0.128869972,1.1118,-8.1766,1.68892,285.4148213754688,0.008372005,0.057,-7.9731,207.57119,-0.124,-8.996,2.27295,NaN,NaN,NaN,NaN,NaN,NaN,NaN
RHMQVZOUTFOGKP-UHFFFAOYSA-N,N#Cc1cc2cc3ccccc3nc2[nH]c1=O,N#Cc1cc2cc3ccccc3nc2[nH]c1=O,325.0,0.125076884,-1.2979,-9.017,8.62612,367.0343351258249,0.494220312,-1.8347,-8.7884,118.99179,-2.125,-9.497,8.19299,NaN,NaN,392,NaN,392,NaN,acetone
JMZIXINGUATICO-UHFFFAOYSA-N,Cc1ccc(cc1)N(c1ccc(cc1)C=C1C(=O)c2c(C1=O)cccc2)c1ccc(cc1)C=C1C(=O)c2c(C1=O)cccc2,Cc1ccc(cc1)N(c1ccc(cc1)C=C1C(=O)c2c(C1=O)cccc2)c1ccc(cc1)C=C1C(=O)c2c(C1=O)cccc2,384.1,1.84639958,-1.0992,-7.4988,2.52472,416.0543570654485,0.41505618,-1.2083,-7.2653,122.15518,-1.2,-8.086,1.93558,413.1429290544467,1.680051247,543,NaN,543,NaN,NaN
PTRATZCAGVBFIQ-UHFFFAOYSA-N,Cc1ccc(nc1)c1ccc(cn1)C,Cc1ccc(nc1)c1ccc(cn1)C,263.3,0.555404813,0.5476,-8.3645,0.00022,316.36692627074166,0.522440905,-0.2806,-7.9806,0.01045,-0.683,-9.073,0.00142,NaN,NaN,244,40400.0,244,40400.0,NaN
KGLPWQKSKUVKMJ-UHFFFAOYSA-N,O=c1[nH][nH]c(=O)c2c1cccc2,O=c1[nH][nH]c(=O)c2c1cccc2,255.7,0.052704755,0.0685,-9.0728,0.20048,313.9635310344484,0.00526928,-1.3053,-9.8615,58.73373,-1.255,-9.382,1.08474,NaN,NaN,300,12250,300,12250,NaN
LNGJMPKBPWVIGK-UHFFFAOYSA-N,CCn1c2ccccc2c2c1cc(cc2)c1ccc(cc1)C=Cc1ccc(cc1)C=C(c1ccccc1)c1ccccc1,CCn1c2ccccc2c2c1cc(cc2)c1ccc(cc1)C=Cc1ccc(cc1)C=C(c1ccccc1)c1ccccc1,349.2,2.437947107,-0.1585,-7.2889,2.19980,330.800956258014,1.502496747,-0.1374,-7.3786,32.83555,-0.622,-8.274,2.014,NaN,NaN,418.0,NaN,375.0,NaN,NaN
JVLPEWLDIXITGD-UHFFFAOYSA-N,O=Cc1ccc(cc1)C=CC(=O)c1c(=O)oc2c(c1O)cccc2,O=Cc1ccc(cc1)C=CC(=O)c1c(=O)oc2c(c1O)cccc2,315.6,1.453309444,-1.2537,-8.9918,5.24380,363.6966805676259,0.00851905,-1.7191,-8.9114,10.54925,-1.564,-9.878,5.2479,337.44541127113234,0.0001228439,370,NaN,370,NaN,NaN
YNAJXNHATGQWMO-UHFFFAOYSA-N,Cc1ccc2c(c1)nc1n2c(cc2c1c(C)nn2c1ccccc1)c1ccccc1,Cc1ccc2c(c1)nc1n2c(cc2c1c(C)nn2c1ccccc1)c1ccccc1,294.0,0.073757289,0.577,-7.6254,4.88964,361.1540879857375,0.083253512,-0.4858,-7.4876,62.64947,-0.823,-8.428,5.42479,NaN,NaN,285.0,NaN,208.0,NaN,NaN
AKHFPHDDXOXAQS-UHFFFAOYSA-N,Cc1cc(C(c2ccccc2)c2ccccc2)c(c(c1)c1nc2c([nH]1)cc(cc2)Cl)O,Cc1cc(C(c2ccccc2)c2ccccc2)c(c(c1)c1nc2c([nH]1)cc(cc2)Cl)O,295.7,0.769381404,0.2261,-7.9223,3.11809,349.4481353029979,0.526144184,-0.8433,-8.0283,386.27535,-1.032,-8.746,3.76531,NaN,NaN,225,NaN,225,NaN,NaN
PLTYYOXFGJCFEA-UHFFFAOYSA-N,[N-]=[N+]=NCCOCCOCCNC(=O)c1cc2ccc(cc2oc1=O)N(CCN(CC(=O)O)CC(=O)O)CCN(CC(=O)O)CC(=O)O,[N-]=[N+]=NCCOCCOCCNC(=O)c1cc2ccc(cc2oc1=O)N(CCN(CC(=O)O)CC(=O)O)CCN(CC(=O)O)CC(=O)O,306.0,0.757542051,-0.5303,-8.3337,5.25494,553.9955246001057,8.992e-06,-1.4728,-8.2293,70.96625,-1.048,-8.529,5.30514,NaN,NaN,403,NaN,403,NaN,NaN
PKNDBBPSLQMXGP-UHFFFAOYSA-N,O=C(c1ccccc1)c1ccc(cc1)COc1ccccc1,O=C(c1ccccc1)c1ccc(cc1)COc1ccccc1,306.4,0.003066843,0.0335,-8.5417,2.29017,361.9976595781129,0.001152677,-0.5684,-8.8159,48.52893,-0.745,-9.123,2.3496,NaN,NaN,263.0,NaN,255.0,NaN,THF
NGANXIMGMFBQTI-UHFFFAOYSA-N,COc1cc2ccccc2cc1C=Cc1ccc2c(c1)ccc1c2C=CC(O1)(c1ccccc1)c1ccccc1,COc1cc2ccccc2cc1C=Cc1ccc2c(c1)ccc1c2C=CC(O1)(c1ccccc1)c1ccccc1,332.0,0.393445229,0.0515,-7.2781,1.00382,356.0717932380921,0.160522702,-0.3634,-7.2673,30.49054,-0.755,-8.224,1.06289,NaN,NaN,484,NaN,484,NaN,NaN
YBLXZCTUTJMOII-UHFFFAOYSA-N,CCN1C(=S)N(CC)C(=O)C(=CC=CC=CC=c2n(c3ccccc3)c3c(n2c2ccccc2)cccc3)C1=O,CCN1C(=S)N(CC)C(=O)C(=CC=CC=CC=c2n(c3ccccc3)c3c(n2c2ccccc2)cccc3)C1=O,438.0,3.029265829,-0.8497,-6.6375,16.01816,526.2487198875368,1.223316381,-1.8887,-7.2318,364.34033,-1.605,-7.892,13.82024,NaN,NaN,700.0,NaN,578.0,NaN,EtOH
UPDUKUPKSVMJLR-UHFFFAOYSA-N,O=c1[nH]c(=O)c2c1c1CCCCCc1[nH]c2=O,O=c1[nH]c(=O)c2c1c1Cc1[nH]c2=O,356.1,0.154385086,-1.1252,-8.8165,5.42637,465.7558166998635,0.211552917,-2.1884,-8.672,52.08090,-1.937,-9.616,6.78284,NaN,NaN,423.0,7828,224.0,11118,HCl
XBZBTDLQONLAMK-CJNGLKHVSA-N,O[C@@H]1CCN2[C@@H](C1)C(C)(C)c1c2ccc2c1cccc2,O[C@@H]1CCN2[C@@H](C1)C(C)(C)c1c2ccc2c1cccc2,325.8,0.08095192,0.8748,-7.0751,2.64836,342.1197527745686,0.059056169,-0.0132,-7.3367,45.68295,-0.428,-7.985,0.45248,NaN,NaN,307.0,53870.0,217.0,9500.0,NaN
UDSAIICHUKSCKT-UHFFFAOYSA-N,Oc1c(Br)cc(cc1Br)C1(OS(=O)(=O)c2c1cccc2)c1cc(Br)c(c(c1)Br)O,Oc1c(Br)cc(cc1Br)C1(OS(=O)(=O)c2c1cccc2)c1cc(Br)c(c(c1)Br)O,251.8,0.051245897,0.2428,-8.9765,5.36095,306.51223338814253,0.000125684,-0.9906,-9.0799,313.75036,-1.106,-9.481,5.3813,NaN,NaN,591.0,NaN,436.0,NaN,NaN
HNDVDQJCIGZPNO-UHFFFAOYSA-N,NC(C(=O)O)Cc1cnc[nH]1,NC(C(=O)O)Cc1cnc[nH]1,213.6,0.003833682,1.8334,-8.7442,3.64414,284.3022206042276,0.000735209,-0.0223,-8.0925,45.70752,0.308,-9.577,3.96181,NaN,NaN,NaN,NaN,NaN,NaN,NaN
MUIGGPOKWXIDNO-UHFFFAOYSA-N,c1ccc(cc1)C=Cc1ncc(nc1)C=Cc1ccccc1,c1ccc(cc1)C=Cc1ncc(nc1)C=Cc1ccccc1,344.9,2.011712675,-0.5575,-7.713,0.49501,376.73715711183127,1.102859872,-0.7973,-7.5622,12.03551,-1.254,-8.857,0.07363,355.3268363546827,1.7723246211,434.0,39000.0,280.0,22000.0,NaN
KLIDCXVFHGNTTM-UHFFFAOYSA-N,COc1cccc(c1O)OC,COc1cccc(c1O)OC,248.7,0.004488927,2.3462,-7.8824,2.65994,288.00046087225013,0.000697803,0.556,-8.59,33.30163,0.286,-8.597,2.51044,NaN,NaN,468,NaN,468,NaN,NaN
WSJRTWXWALVYID-UHFFFAOYSA-N,Nc1ccc2c(c1)nc1c(n2)c2c3c1cccc3c(cc2)[N+](=O)[O-],Nc1ccc2c(c1)nc1c(n2)c2c3c1cccc3c(cc2)[N+](=O)[O-],359.5,0.153931711,-1.194,-7.9837,6.88612,460.9078007639541,0.271853977,-2.5775,-7.8975,137.13993,-1.999,-8.712,7.65337,NaN,NaN,557.0,NaN,390.0,NaN,NaN
VZYLWUFNOMSQSJ-UHFFFAOYSA-N,CCC(c1ccccc1OC)O,CCC(c1ccccc1OC)O,241.4,0.0337573,1.6763,-8.4956,2.89163,277.80461215662933,0.013571386,0.5833,-8.6263,41.66495,0.036,-9.102,3.04019,NaN,NaN,NaN,NaN,NaN,NaN,NaN
ORUFNCBIWJQYND-UHFFFAOYSA-N,CCCCCCCCC1(CCCCCCCC)c2cc3nc([nH]c3cc2c2c1cc1nc([nH]c1c2)c1ccc(cc1)C)c1ccc(cc1)C,C1(C)c2cc3nc([nH]c3cc2c2c1cc1nc([nH]c1c2)c1ccc(cc1)C)c1ccc(cc1)C,329.1,2.066701416,0.1773,-7.0803,5.87681,398.5348711202303,1.495326709,-0.5143,-6.8153,10.81482,-0.949,-8.196,6.56792,335.36433056326604,1.9878848147,376.0,NaN,371.0,NaN,NaN
JKIORNJNTZDXGB-CGHJUBPDSA-N,C[C@H](c1ccccc1)OC(=O)C(Cc1ccccc1)CNCc1ccccc1,C[C@H](c1ccccc1)OC(=O)C(Cc1ccccc1)CNCc1ccccc1,232.2,0.000298845,1.6051,-8.6904,2.13863,274.6050905991222,0.001568143,0.2927,-8.4631,46.59178,0.111,-9.282,1.4418,NaN,NaN,NaN,NaN,NaN,NaN,NaN
XPELOJYRELTNEG-UHFFFAOYSA-N,CCCC(=NO)c1ccccn1,C(=NO)c1ccccn1,254.3,0.004847192,0.4696,-8.8981,2.19159,299.6234857552046,0.003822885,-0.7359,-9.0771,60.34167,-0.835,-9.789,2.12666,NaN,NaN,278.0,NaN,205.0,NaN,NaN
NTEVISZPYCTOIJ-UHFFFAOYSA-N,CCN1CCN(c2c1cc1cc(C(=O)N)c(=O)oc1c2)CC,CCN1CCN(c2c1cc1cc(C(=O)N)c(=O)oc1c2)CC,341.3,0.506791073,0.0642,-7.2231,8.73688,402.02398964171095,0.45778104,-1.3945,-7.9371,203.14040,-1.122,-8.185,8.69149,NaN,NaN,462.0,NaN,450.0,NaN,Methanol
GMBARGHQDABSRK-UHFFFAOYSA-N,CCCCCCCc1sc2c(c1C1=C(C(=O)CC1)c1cc(sc1C)C)cccc2,Cc1sc2c(c1C1=C(C(=O)CC1)c1cc(sc1C)C)cccc2,298.6,0.008309411,0.267,-8.0173,3.39557,361.68085882585666,0.020799496,-0.5865,-7.6639,55.25167,-0.707,-8.516,3.09211,NaN,NaN,317.0,NaN,257.0,NaN,NaN
LKMSCUCFGQUBOC-UHFFFAOYSA-N,CCCCN(c1ccc(cc1)C1=C(O)C(=O)C1=O)CCCC,CN(c1ccc(cc1)C1=C(O)C(=O)C1=O)C,330.9,0.000916476,-0.0653,-7.663,8.09273,383.14029173517815,0.000331656,-1.3751,-8.2174,174.40629,-1.033,-8.128,5.144,NaN,NaN,560.0,40000,386.0,40000,barium sulfate
GJMKSIOFEQQINL-UHFFFAOYSA-N,OCC(Cn1c(=CC=C2C=C(OC)C(=O)C(=C2)OC)sc2c1cccc2)O,OCC(Cn1c(=CC=C2C=C(OC)C(=O)C(=C2)OC)sc2c1cccc2)O,381.2,2.088555221,-0.6861,-6.8415,9.91202,449.5438665899335,1.170372553,-1.6719,-7.4331,63.65674,-1.477,-7.647,4.81966,432.8301379271756,1.3913906405,566,NaN,566,NaN,NaN
IWGOWYYWHQYJDE-UHFFFAOYSA-N,N#Cc1c(N)nc(c(c1c1ccccc1O)C#N)N,N#Cc1c(N)nc(c(c1c1ccccc1O)C#N)N,274.6,0.212571535,0.3019,-8.3359,2.70284,322.53953799558707,0.181103619,-0.4565,-8.4206,47.93845,-0.591,-9.194,2.91786,NaN,NaN,374.0,NaN,368.0,NaN,THF