inchikey,smi_pre,smi_post,lambda_sTDA (nm),f1_sTDA,lumo_dft,homo_dft,dmom_dft (D),lambda_z (nm),f1_z,lumo_z,homo_z,dmom_z (D),lumo_mopac,homo_mopac,dmom_mopac (D),lambda_tddft (nm),f1_tddft,lambda_exp_max (nm),epsilon_exp_max ,lambda_exp_min (nm),epsilon_exp_min ,solvent
NNLJGSRTMMNQRV-VWLOTQADSA-N,O=C(N[C@H](C(=O)OCc1cc(=S)n(c2c1cc(C)cc2)C)Cc1ccccc1)OCc1ccccc1,O=C(N[C@H](C(=O)OCc1cc(=S)n(c2c1cc(C)cc2)C)Cc1ccccc1)OCc1ccccc1,370.7,0.00144953,-0.2611,-7.7725,7.40460,486.594185264928,0.00026437,-1.1403,-8.0028,159.15206,-1.205,-8.008,7.92412,NaN,NaN,388,NaN,388,NaN,NaN
DMUNPYARJRXQNC-VWLOTQADSA-N,COc1ccc2c(c1)c(COC(=O)[C@H](Cc1ccccc1)NC(=O)OCc1ccccc1)cc(=S)n2C,COc1ccc2c(c1)c(COC(=O)[C@H](Cc1ccccc1)NC(=O)OCc1ccccc1)cc(=S)n2C,374.0,0.003697404,-0.2992,-7.6802,8.45075,495.14456232229895,0.000177465,-1.1753,-8.0149,120.50379,-1.231,-7.9,8.17533,NaN,NaN,401,NaN,401,NaN,NaN
LDGCEOLDTCZOSO-HNNXBMFYSA-N,COc1ccc2c(c1)c(COC(=O)[C@@H](NC(=O)OCc1ccccc1)C)cc(=S)n2C,COc1ccc2c(c1)c(COC(=O)[C@@H](NC(=O)OCc1ccccc1)C)cc(=S)n2C,374.4,0.007800205,-0.3459,-7.7181,8.39956,487.9346651141427,0.000426343,-1.2021,-8.0414,105.07426,-1.305,-7.941,7.33276,NaN,NaN,395,NaN,395,NaN,NaN
BHNNFWNCNJYFPY-DLBZAZTESA-N,CCOC(=O)[C@@H]([C@H](c1ccccc1OCc1ccccc1)O)O,CCOC(=O)[C@@H]([C@H](c1ccccc1OCc1ccccc1)O)O,242.1,0.044245106,1.3039,-8.3578,3.80681,277.80461215662933,0.015069482,0.2127,-8.67,106.16745,-0.132,-9.065,3.88406,NaN,NaN,254,NaN,254,NaN,NaN
BCGWQEUPMDMJNV-UHFFFAOYSA-N,CN(CCCN1c2ccccc2CCc2c1cccc2)C,CN(CCCN1c2ccccc2CCc2c1cccc2)C,260.6,0.030677844,1.5931,-7.663,0.37673,289.81813559023766,0.021853384,0.6662,-7.9699,26.83936,0.296,-7.955,3.17974,NaN,NaN,290,NaN,290,NaN,NaN
JBMKAUGHUNFTOL-UHFFFAOYSA-N,Clc1cc2NC=NS(=O)(=O)c2cc1S(=O)(=O)N,Clc1cc2NC=NS(=O)(=O)c2cc1S(=O)(=O)N,259.3,0.073485076,-0.1933,-9.5677,9.00972,291.6589000364706,0.025842054,-1.7202,-10.2707,76.97272,-1.49,-10.178,8.82548,NaN,NaN,313.0,NaN,296.0,NaN,NaN
CXVGEDCSTKKODG-UHFFFAOYSA-N,COc1cc(O)c(cc1S(=O)(=O)O)C(=O)c1ccccc1,COc1cc(O)c(cc1S(=O)(=O)O)C(=O)c1ccccc1,282.0,0.029356373,-0.2972,-9.096,3.38803,365.95099883560704,0.002443285,-1.4018,-9.3684,154.54554,-1.052,-9.986,2.70142,NaN,NaN,319,NaN,319,NaN,NaN
MWPLVEDNUUSJAV-UHFFFAOYSA-N,c1ccc2c(c1)cc1c(c2)cccc1,c1ccc2c(c1)cc1c(c2)cccc1,353.0,0.111901389,-0.0887,-7.473,0.00009,363.1640257923364,0.180429691,-0.6728,-7.3465,0.00291,-1.094,-8.388,0.00079,NaN,NaN,379.0,NaN,294.0,NaN,NaN
LNEPOXFFQSENCJ-UHFFFAOYSA-N,Fc1ccc(cc1)C(=O)CCCN1CCC(CC1)(O)c1ccc(cc1)Cl,Fc1ccc(cc1)C(=O)CCCN1CCC(CC1)(O)c1ccc(cc1)Cl,288.9,0.000384282,0.3208,-8.4823,0.95472,355.052114563298,0.000426746,-0.8519,-9.1501,209.94697,-0.72,-8.954,1.21365,NaN,NaN,290,NaN,290,NaN,NaN
SIVHFRZJFCASNV-UHFFFAOYSA-N,OCC1OC(C(C1O)O)C1NNc2c1ncnc2N,OCC1OC(C(C1O)O)C1NNc2c1ncnc2N,264.5,0.097701571,0.9731,-8.5759,4.97441,298.03893847476843,0.13051474,-0.0236,-8.4674,19.76198,-0.825,-8.812,5.6562,NaN,NaN,294.0,NaN,277.0,NaN,NaN
QLAHWTNCEYYDRR-UHFFFAOYSA-N,NC(C(=O)O)CC(=O)c1cccc2c1nc1c(o2)cc(=O)c2c1c(=O)cc([nH]2)C(=O)O,NC(C(=O)O)CC(=O)c1cccc2c1nc1c(o2)cc(=O)c2c1c(=O)cc([nH]2)C(=O)O,383.2,0.159380619,-1.8624,-8.7137,7.24536,444.387807905031,0.678104591,-2.8302,-8.7433,97.84734,-2.519,-9.434,8.11569,NaN,NaN,459,NaN,459,NaN,water
HCZHHEIFKROPDY-UHFFFAOYSA-N,OC(=O)c1cc(=O)c2c([nH]1)cccc2,OC(=O)c1cc(=O)c2c([nH]1)cccc2,311.3,2.0652e-05,-0.3217,-8.4235,6.79861,378.34665366342284,3.503e-06,-1.5993,-8.8327,94.27648,-1.239,-9.047,5.92046,NaN,NaN,332,NaN,332,NaN,water
VCKPUUFAIGNJHC-UHFFFAOYSA-N,OC(=O)C(CC(=O)c1cccc(c1N)O)N,OC(=O)C(CC(=O)c1cccc(c1N)O)N,296.4,0.083967185,0.4678,-8.0812,5.01467,345.93805358678475,0.002157608,-0.391,-8.3451,74.80880,-0.518,-8.758,5.37209,NaN,NaN,373,NaN,373,NaN,water
YGPSJZOEDVAXAB-UHFFFAOYSA-N,OC(=O)C(CC(=O)c1ccccc1N)N,OC(=O)C(CC(=O)c1ccccc1N)N,305.5,0.151337055,0.3349,-8.0318,4.30519,359.89607664877695,0.008674729,-0.6731,-8.2634,75.58410,-0.788,-8.882,5.55068,NaN,NaN,363,NaN,363,NaN,water
OHVSTODUWQFADW-UHFFFAOYSA-N,Clc1ccc(cc1)n1c2=CC(N=Cc2cc2c1nn(c2C(=O)C)C)c1ccccc1,Clc1ccc(cc1)n1c2=CC(N=Cc2cc2c1nn(c2C(=O)C)C)c1ccccc1,428.5,0.271719642,-0.4729,-7.1743,1.46114,485.07119876957614,0.347489963,-1.5623,-7.2811,188.45108,-1.309,-7.991,3.51314,NaN,NaN,353,NaN,353,NaN,NaN
DYANUNAOJHFBIR-UHFFFAOYSA-N,Brc1ccc(cc1)n1c2=CC(N=Cc2cc2c1nn(c2C(=O)C)C)c1ccccc1,Brc1ccc(cc1)n1c2=CC(N=Cc2cc2c1nn(c2C(=O)C)C)c1ccccc1,428.7,0.271755987,-0.4805,-7.1812,1.51749,485.45105092209735,0.341030473,-1.5447,-7.268,421.19666,-1.303,-7.984,3.42132,NaN,NaN,361,NaN,361,NaN,NaN
LQUBCKHMFKIAET-UHFFFAOYSA-N,CCOC(=O)c1n(C)nc2c1cc1C=NC(C=c1n2c1ccc(cc1)Cl)c1ccccc1,CCOC(=O)c1n(C)nc2c1cc1C=NC(C=c1n2c1ccc(cc1)Cl)c1ccccc1,413.7,0.286292594,-0.1994,-7.0768,3.32158,482.9925921523321,0.367688702,-1.5513,-7.2512,198.46234,-1.237,-7.945,4.67867,NaN,NaN,346,NaN,346,NaN,NaN
MFJCAJCZMITOQY-UHFFFAOYSA-N,Clc1ccc(cc1)n1c2=CC(N=Cc2cc2c1nn(c2)C)c1ccccc1,Clc1ccc(cc1)n1c2=CC(N=Cc2cc2c1nn(c2)C)c1ccccc1,383.9,0.231882987,0.3662,-6.9546,5.25437,428.2701153903408,0.290431045,-0.7303,-7.0338,173.06203,-0.797,-7.858,6.81928,NaN,NaN,349,NaN,349,NaN,NaN
MBGTWSVXHBPSGE-UHFFFAOYSA-N,Brc1ccc(cc1)n1c2=CC(N=Cc2cc2c1nn(c2)C)c1ccccc1,Brc1ccc(cc1)n1c2=CC(N=Cc2cc2c1nn(c2)C)c1ccccc1,383.8,0.234173777,0.3618,-6.9694,5.27618,429.3081662240432,0.277331395,-0.7102,-7.0189,400.84758,-0.794,-7.845,6.79549,NaN,NaN,355,NaN,355,NaN,NaN
ROOIVZXAEPXMFF-UHFFFAOYSA-N,Clc1ccc(cc1)c1nn(c2c1c1nc3CCCc3cc1cn2)c1ccccc1,Clc1ccc(cc1)c1nn(c2c1c1nc3CCCc3cc1cn2)c1ccccc1,304.8,0.35753309,-0.2147,-7.862,5.73990,358.54308387942064,0.30572635,-0.9324,-7.8266,201.85524,-1.227,-8.646,5.65481,NaN,NaN,355,NaN,355,NaN,NaN
KQDMSCPOSHXFIG-UHFFFAOYSA-N,Brc1ccc(cc1)c1nn(c2c1c1nc3CCCc3cc1cn2)c1ccccc1,Brc1ccc(cc1)c1nn(c2c1c1nc3CCCc3cc1cn2)c1ccccc1,305.2,0.375001896,-0.2338,-7.8703,5.81678,358.0254068885465,0.28931899,-0.897,-7.8194,451.72386,-1.194,-8.669,5.52773,NaN,NaN,354,NaN,354,NaN,NaN
FOXOBCBNJHNVDZ-UHFFFAOYSA-N,Clc1ccc(cc1)c1nn(c2c1c1nc3CCCCc3cc1cn2)c1ccccc1,Clc1ccc(cc1)c1nn(c2c1c1nc3Cc3cc1cn2)c1ccccc1,305.0,0.244279102,-0.3443,-7.9654,5.10202,364.0170240913202,0.009395474,-0.806,-7.7906,203.59288,-1.337,-8.754,4.90519,NaN,NaN,357,NaN,357,NaN,NaN
XKSVPABXUUZLTH-UHFFFAOYSA-N,Brc1ccc(cc1)c1nn(c2c1c1nc3CCCCc3cc1cn2)c1ccccc1,Brc1ccc(cc1)c1nn(c2c1c1nc3Cc3cc1cn2)c1ccccc1,305.5,0.281631055,-0.3647,-7.9591,5.22821,363.59002464957086,0.012024039,-0.7656,-7.796,446.33724,-1.302,-8.788,4.80925,NaN,NaN,343,NaN,343,NaN,NaN
YWOHGWHGMISCBM-UHFFFAOYSA-N,Clc1ccc(cc1)c1nn(c2c1c1nc3C(C)CCCc3cc1cn2)c1ccccc1,Clc1ccc(cc1)c1nn(c2c1c1nc3C(C)CCCc3cc1cn2)c1ccccc1,303.7,0.328602474,-0.2067,-7.8996,5.38683,360.2097571339444,0.30510531,-0.9792,-7.8459,197.63893,-1.21,-8.635,5.40569,NaN,NaN,357,NaN,357,NaN,NaN
BQEPRNPOLWDOLV-UHFFFAOYSA-N,CC1CCc2c(C1)nc1c(c2)cnc2c1c(nn2c1ccccc1)c1ccc(cc1)Cl,CC1CCc2c(C1)nc1c(c2)cnc2c1c(nn2c1ccccc1)c1ccc(cc1)Cl,304.1,0.327372112,-0.1978,-7.8583,5.79639,359.89607664877695,0.302771242,-0.9747,-7.8471,211.40405,-1.217,-8.636,5.65099,NaN,NaN,356,NaN,356,NaN,NaN
XTUBLEFWFPPVSY-UHFFFAOYSA-N,CC1CCc2c(C1)nc1c(c2)cnc2c1c(nn2c1ccccc1)c1ccc(cc1)Br,CC1CCc2c(C1)nc1c(c2)cnc2c1c(nn2c1ccccc1)c1ccc(cc1)Br,303.1,0.334506538,-0.2032,-7.8819,5.80910,358.85440927786874,0.283778791,-0.9372,-7.8509,450.63840,-1.195,-8.638,5.62131,NaN,NaN,354.0,NaN,319.0,NaN,NaN
CSSOIJCWOWQJFM-UHFFFAOYSA-N,CCOC(=O)C1CCCc2c1nc1c(c2)cnc2c1c(nn2c1ccccc1)c1ccc(cc1)Cl,CCOC(=O)C1CCCc2c1nc1c(c2)cnc2c1c(nn2c1ccccc1)c1ccc(cc1)Cl,307.8,0.347442141,-0.2843,-7.8957,5.06107,362.52689592252534,0.287537702,-1.0474,-7.8644,178.96709,-1.306,-8.679,4.83297,NaN,NaN,355,NaN,355,NaN,NaN
NVUUIQCZLKUGFT-UHFFFAOYSA-N,CCOC(=O)C1CCCc2c1nc1c(c2)cnc2c1c(nn2c1ccccc1)c1ccc(cc1)Br,CCOC(=O)C1CCCc2c1nc1c(c2)cnc2c1c(nn2c1ccccc1)c1ccc(cc1)Br,306.4,0.32897928,-0.33,-7.9266,6.57681,363.6966805676259,0.271850989,-1.0848,-7.8772,458.44724,-1.315,-8.654,6.72338,NaN,NaN,369.0,NaN,327.0,NaN,NaN
UYTATZNIAAFKGL-UHFFFAOYSA-N,O=C1CCc2c(C1)nc1c(c2)cnc2c1c(nn2c1ccccc1)c1ccc(cc1)Cl,O=C1CCc2c(C1)nc1c(c2)cnc2c1c(nn2c1ccccc1)c1ccc(cc1)Cl,305.8,0.313364691,-0.4117,-8.0165,6.41769,363.91018023335386,0.288430975,-1.2499,-8.0102,222.77312,-1.459,-8.807,6.34093,NaN,NaN,363,NaN,363,NaN,NaN
ZLIXQOCDNJMXRJ-UHFFFAOYSA-N,O=C1CCc2c(C1)nc1c(c2)cnc2c1c(nn2c1ccccc1)c1ccc(cc1)Br,O=C1CCc2c(C1)nc1c(c2)cnc2c1c(nn2c1ccccc1)c1ccc(cc1)Br,306.3,0.334385044,-0.4316,-8.0178,6.51380,361.9976595781129,0.269077444,-1.2004,-8.021,465.43122,-1.426,-8.829,6.38881,NaN,NaN,356,NaN,356,NaN,NaN
CAGQRVDGDZKXTJ-UHFFFAOYSA-N,O=C1Cc2nc3c(cc2C(C1)(C)C)cnc1c3c(nn1c1ccccc1)c1ccc(cc1)Cl,O=C1Cc2nc3c(cc2C(C1)(C)C)cnc1c3c(nn1c1ccccc1)c1ccc(cc1)Cl,305.5,0.313718357,-0.4079,-8.0156,6.32611,365.5194528464141,0.288142011,-1.2397,-7.9922,253.07830,-1.422,-8.789,6.58635,NaN,NaN,345,NaN,345,NaN,NaN
ZXQFBNJGKGTSOF-UHFFFAOYSA-N,Clc1ccc(cc1)c1nn(c2c1c1nc3c(cc1cn2)CCc1c3cccc1)c1ccccc1,Clc1ccc(cc1)c1nn(c2c1c1nc3c(cc1cn2)CCc1c3cccc1)c1ccccc1,318.2,0.563309187,-0.5069,-7.8877,5.42587,372.54867309346054,0.455035965,-1.1134,-7.8099,178.02055,-1.378,-8.649,5.49991,NaN,NaN,376,NaN,376,NaN,NaN
QAJOFQNMSCGHNU-UHFFFAOYSA-N,Brc1ccc(cc1)c1nn(c2c1c1nc3c(cc1cn2)CCc1c3cccc1)c1ccccc1,Brc1ccc(cc1)c1nn(c2c1c1nc3c(cc1cn2)CCc1c3cccc1)c1ccccc1,318.0,0.56383758,-0.5121,-7.8949,5.48466,372.99698677949357,0.435126378,-1.0935,-7.786,423.60214,-1.351,-8.676,5.39211,NaN,NaN,381,NaN,381,NaN,NaN
HAOXJSOCFGYVIC-UHFFFAOYSA-N,COc1ccc2c(c1)CCc1c2nc2c(c1)cnc1c2c(nn1c1ccccc1)c1ccc(cc1)Cl,COc1ccc2c(c1)CCc1c2nc2c(c1)cnc1c2c(nn1c1ccccc1)c1ccc(cc1)Cl,321.4,0.740303783,-0.4016,-7.7777,4.74785,375.2548377890547,0.493058895,-1.1051,-7.7717,183.30679,-1.294,-8.569,4.2334,NaN,NaN,390,NaN,390,NaN,NaN
YCBNLEYYOQWVAA-UHFFFAOYSA-N,COc1ccc2c(c1)CCc1c2nc2c(c1)cnc1c2c(nn1c1ccccc1)c1ccc(cc1)Br,COc1ccc2c(c1)CCc1c2nc2c(c1)cnc1c2c(nn1c1ccccc1)c1ccc(cc1)Br,321.2,0.747399737,-0.4109,-7.7904,4.74935,375.02782336812965,0.472840749,-1.081,-7.7668,413.74245,-1.267,-8.583,4.17564,NaN,NaN,977.0,NaN,394.0,NaN,NaN
BIBJLBDUNIRPAN-UHFFFAOYSA-N,Clc1ccc(cc1)c1nn(c2c1c1nc3c(cc1cn2)Cc1c3cccc1)c1ccccc1,Clc1ccc(cc1)c1nn(c2c1c1nc3c(cc1cn2)Cc1c3cccc1)c1ccccc1,315.4,0.604983701,-0.5316,-7.8791,5.70621,369.3303497334038,0.455701804,-1.1201,-7.7964,186.60526,-1.426,-8.675,5.55335,NaN,NaN,382,NaN,382,NaN,NaN
OZYUXGBGHSIZDV-UHFFFAOYSA-N,Brc1ccc(cc1)c1nn(c2c1c1nc3c(cc1cn2)Cc1c3cccc1)c1ccccc1,Brc1ccc(cc1)c1nn(c2c1c1nc3c(cc1cn2)Cc1c3cccc1)c1ccccc1,315.4,0.609546946,-0.5384,-7.8773,5.80879,369.44040049315754,0.439282185,-1.1007,-7.78,424.91937,-1.406,-8.693,5.45278,NaN,NaN,377,NaN,377,NaN,NaN
QBFNTHGLCRIBKR-UHFFFAOYSA-N,COc1cc2c(cc1OC)Cc1c2nc2c(c1)cnc1c2c(nn1c1ccccc1)c1ccc(cc1)Cl,COc1cc2c(cc1OC)Cc1c2nc2c(c1)cnc1c2c(nn1c1ccccc1)c1ccc(cc1)Cl,317.4,0.86611197,-0.4292,-7.8369,3.86867,371.6552709997112,0.51482455,-1.1374,-7.8042,187.41705,-1.356,-8.476,3.13026,NaN,NaN,393,NaN,393,NaN,NaN
KMNXOVDCHDGVTF-UHFFFAOYSA-N,COc1cc2c(cc1OC)Cc1c2nc2c(c1)cnc1c2c(nn1c1ccccc1)c1ccc(cc1)Br,COc1cc2c(cc1OC)Cc1c2nc2c(c1)cnc1c2c(nn1c1ccccc1)c1ccc(cc1)Br,319.4,0.937413242,-0.3388,-7.6995,6.03157,371.5438969298881,0.48863813,-1.1076,-7.7868,428.70557,-1.321,-8.431,5.64201,NaN,NaN,388.0,NaN,369.0,NaN,NaN
CQFHAHKNDGATRY-UHFFFAOYSA-N,Clc1ccc(cc1)c1nn(c2c1c1nc3c(cc1cn2)CC(c1c3cccc1)c1ccc(c(c1)Cl)Cl)c1ccccc1,Clc1ccc(cc1)c1nn(c2c1c1nc3c(cc1cn2)CC(c1c3cccc1)c1ccc(c(c1)Cl)Cl)c1ccccc1,321.0,0.540504513,-0.6423,-7.9274,6.31636,376.05155718988067,0.420573977,-1.2675,-7.8761,326.35588,-1.524,-8.771,4.35624,NaN,NaN,383,NaN,383,NaN,NaN
IASQOBJPINWNFY-UHFFFAOYSA-N,Brc1ccc(cc1)c1nn(c2c1c1nc3c(cc1cn2)CC(c1c3cccc1)c1ccc(c(c1)Cl)Cl)c1ccccc1,Brc1ccc(cc1)c1nn(c2c1c1nc3c(cc1cn2)CC(c1c3cccc1)c1ccc(c(c1)Cl)Cl)c1ccccc1,319.4,0.529114704,-0.6322,-7.9409,6.35715,375.5958752060093,0.403858193,-1.2492,-7.8547,434.62170,-1.453,-8.709,6.64881,NaN,NaN,369.0,NaN,352.0,NaN,NaN
IXWOUPGDGMCKGT-UHFFFAOYSA-N,O=Cc1cccc(c1O)O,O=Cc1cccc(c1O)O,308.1,0.069446316,-0.102,-8.4884,1.77055,363.8033990771821,4.643e-06,-1.1333,-8.9448,55.53926,-1.033,-9.16,2.2312,NaN,NaN,357.0,NaN,339.0,NaN,NaN
LMNPKIOZMGYQIU-UHFFFAOYSA-N,O=c1[nH]c(=O)[nH]cc1C(F)(F)F,O=c1[nH]c(=O)[nH]cc1C(F)(F)F,236.1,0.00072006,0.1861,-10.0456,4.35014,309.96049601375915,0.000470622,-1.5667,-10.5034,64.32783,-1.43,-10.828,4.93432,NaN,NaN,0,NaN,0,NaN,NaN
NLAWPKPYBMEWIR-SKYQDXIQSA-N,OC[C@H]1O[C@@H](Oc2cc3O[C@@H](CC(=O)c3c(c2)O)c2ccc(cc2)OC)[C@@H]([C@H]([C@@H]1O)O)O[C@@H]1O[C@@H](C)[C@@H]([C@H]([C@H]1O)O)O,OC[C@H]1O[C@@H](Oc2cc3O[C@@H](CC(=O)c3c(c2)O)c2ccc(cc2)OC)[C@@H]([C@H]([C@@H]1O)O)O[C@@H]1O[C@@H](C)[C@@H]([C@H]([C@H]1O)O)O,283.1,0.081067219,0.3038,-8.4041,3.44254,346.8089465888214,7.4083e-05,-0.8216,-8.5862,198.30950,-0.552,-9.181,2.39234,NaN,NaN,328.0,NaN,328.0,NaN,NaN
LSHVYAFMTMFKBA-FPOVZHCZSA-N,Oc1cc(O)c2c(c1)O[C@H]([C@H](C2)OC(=O)c1cc(O)c(c(c1)O)O)c1ccc(c(c1)O)O,Oc1cc(O)c2c(c1)O[C@H]([C@H](C2)OC(=O)c1cc(O)c(c(c1)O)O)c1ccc(c(c1)O)O,263.3,0.014490479,0.6766,-8.0237,3.02714,308.64873887354656,0.020624842,-0.9531,-8.323,109.22526,-0.572,-9.005,5.39713,NaN,NaN,NaN,NaN,NaN,NaN,NaN
OUHJHSJEWQBGLH-UHFFFAOYSA-N,c1ccc2c(c1)sc(n2)N=Nc1nc2c(s1)cccc2,c1ccc2c(c1)sc(n2)N=Nc1nc2c(s1)cccc2,496.3,4e-09,-1.552,-8.5769,0.00013,614.6960753867311,1.7e-08,-2.4111,-8.2417,0.01552,-1.764,-9.187,0.88886,NaN,NaN,427,28700,427,28700,MeCN
MIEAJEVYECIBIA-UHFFFAOYSA-N,c1scc(c1)c1cnc2c(c1)ccc1c2nccc1,c1scc(c1)c1cnc2c(c1)ccc1c2nccc1,291.5,0.007139229,0.1532,-8.3591,3.38207,335.9095052980322,0.020126208,-0.5207,-8.0469,145.14949,-1.061,-8.91,3.50091,NaN,NaN,426.0,33300.0,237.0,24500.0,CH 2 Cl 2
XHAANPXFKWZBPX-UHFFFAOYSA-N,CN(CCNC(=N)Nc1ccc2c(c1)nc1c(c2Nc2ccc(cc2)N(C)C)ccc(c1)NC(=N)NCCN(C)C)C,CN(CCNC(=N)Nc1ccc2c(c1)nc1c(c2Nc2ccc(cc2)N(C)C)ccc(c1)NC(=N)NCCN(C)C)C,367.4,0.261403901,-0.1183,-7.0654,3.59468,387.8141958257856,0.154876683,-0.7177,-7.242,87.55781,-0.863,-7.837,8.54475,NaN,NaN,375.0,NaN,371.0,NaN,NaN
DGQLVPJVXFOQEV-UHFFFAOYSA-N,OCC1OC(C(C(C1O)O)O)c1c(O)c2c(c(c1O)O)C(=O)c1c(C2=O)c(C)c(c(c1)O)C(=O)O,OCC1OC(C(C(C1O)O)O)c1c(O)c2c(c(c1O)O)C(=O)c1c(C2=O)c(C)c(c(c1)O)C(=O)O,395.3,0.304709965,-1.607,-8.4828,4.78324,422.5773633452749,0.00840341,-2.5032,-9.0219,39.30705,-2.291,-9.459,6.03676,NaN,NaN,NaN,NaN,NaN,NaN,NaN
UWHUTZOCTZJUKC-JKSUJKDBSA-N,Oc1ccc2c(c1)OC[C@]1([C@@H]2c2cc(O)c(cc2C1)O)O,Oc1ccc2c(c1)OC[C@]1([C@@H]2c2cc(O)c(cc2C1)O)O,255.9,0.114929269,1.4549,-7.9139,3.26190,299.76837138661426,0.045243076,0.2668,-8.1405,35.09988,-0.125,-8.776,1.93446,NaN,NaN,NaN,NaN,NaN,NaN,NaN
QZRHCANANFVREE-UHFFFAOYSA-N,CCOC(=O)c1[nH]c(c(c1C)C(=NN)C(=O)c1cc(cc(c1)[N+](=O)[O-])[N+](=O)[O-])C,CCOC(=O)c1[nH]c(c(c1C)C(=NN)C(=O)c1cc(cc(c1)[N+](=O)[O-])[N+](=O)[O-])C,350.7,0.011655099,-1.0351,-8.2706,7.36391,488.31901695747797,0.036367059,-3.2322,-8.6509,156.95349,-1.967,-9.283,6.62959,NaN,NaN,349.2,NaN,237.0,NaN,NaN
MEJZUPNNGDZZPD-UHFFFAOYSA-N,N#Cc1ccc(cc1)C#Cc1ccc(cc1)c1nc(c([nH]1)c1ccc(cc1)N(C)C)c1ccc(cc1)N(C)C,N#Cc1ccc(cc1)C#Cc1ccc(cc1)c1nc(c([nH]1)c1ccc(cc1)N(C)C)c1ccc(cc1)N(C)C,341.9,2.261626003,-0.4772,-6.671,10.63478,416.0543570654485,0.986273921,-0.9664,-6.8226,219.38632,-1.335,-7.77,9.63752,365.8969839434542,1.7990967299,405,NaN,405,NaN,CH 2 Cl 2
LVPMIMZXDYBCDF-UHFFFAOYSA-N,OC(=O)c1ccc(cn1)C(=O)O,OC(=O)c1ccc(cn1)C(=O)O,276.5,0.003881672,-0.7478,-10.3373,4.88524,317.6638442364941,0.00317136,-1.8129,-10.2567,15.05296,-1.932,-11.187,3.94646,NaN,NaN,273.0,NaN,271.0,NaN,NaN
MELIKCCZLFMBQD-UHFFFAOYSA-N,O=C(c1c(C)[n+]([O-])c2c([n+]1[O-])cc(c(c2)C)C)Nc1ccccc1,O=C(c1c(C)[n+]([O-])c2c([n+]1[O-])cc(c(c2)C)C)Nc1ccccc1,357.6,0.137962021,-0.9335,-8.0384,5.00004,428.2701153903408,0.067337912,-2.5941,-8.4512,61.16814,-1.649,-8.549,6.29038,NaN,NaN,NaN,NaN,NaN,NaN,NaN
BJIWKHKFIMJJPL-UHFFFAOYSA-N,c1ccc(cc1)Cn1c(nc(c1c1ccco1)c1ccco1)c1ccco1,c1ccc(cc1)Cn1c(nc(c1c1ccco1)c1ccco1)c1ccco1,276.0,0.785625959,1.0145,-7.2189,2.52320,423.58796858730324,0.435179668,-0.533,-6.7589,50.49126,-0.596,-8.227,4.27953,NaN,NaN,306,NaN,306,NaN,NaN
XCBIYQMSLDVWML-UHFFFAOYSA-N,N#Cc1ccc(cc1C#N)Oc1ccc(cc1)N=Nc1ccc(c(c1)C=O)O,N#Cc1ccc(cc1C#N)Oc1ccc(cc1)N=Nc1ccc(c(c1)C=O)O,423.6,1.7426e-05,-0.9745,-8.6504,7.16287,515.0984561923708,0.010337092,-1.6141,-8.5486,85.14583,-1.659,-9.343,5.56567,NaN,NaN,344,NaN,344,NaN,NaN
DXICXAFIYJJGCM-UHFFFAOYSA-N,COc1ccc(cc1)Cc1nnc2n1nc(s2)c1cc2cccc3c2c2c1cccc2cc3,COc1ccc(cc1)Cc1nnc2n1nc(s2)c1cc2cccc3c2c2c1cccc2cc3,337.3,0.295625573,-0.5423,-7.8461,7.40562,359.5829420113215,0.000856887,-1.044,-7.6476,218.11654,-1.588,-8.646,5.5678,NaN,NaN,254.0,NaN,226.0,NaN,DMSO
LVBYTCXDVQRCKX-UHFFFAOYSA-N,CCNC(=O)Nc1ccc2c(c1)c(C)nc1c2cccc1,CCNC(=O)Nc1ccc2c(c1)c(C)nc1c2cccc1,298.1,0.035747251,0.4875,-7.8947,6.76416,341.27222242087436,0.111703533,-0.3198,-7.7729,47.36194,-0.713,-8.543,6.18635,NaN,NaN,268,NaN,268,NaN,NaN
VVHWOCUOWAODQI-UHFFFAOYSA-N,CCN1CCN(c2c1cc1cc(C#N)c(=O)oc1c2)CC,CCN1CCN(c2c1cc1cc(C#N)c(=O)oc1c2)CC,354.2,0.541246545,-0.3358,-7.4204,13.48284,408.9188601764633,0.496871057,-1.4802,-7.9266,191.51183,-1.34,-8.265,12.21413,NaN,NaN,495.0,NaN,463.0,NaN,Methanol
NLWCWEGVNJVLAX-UHFFFAOYSA-N,COc1ccccc1c1ccccc1,COc1ccccc1c1ccccc1,246.6,0.141414211,1.0777,-8.4971,1.11625,282.4241421537669,0.035440023,0.2412,-8.2204,23.24171,-0.027,-8.809,1.65721,NaN,NaN,NaN,NaN,NaN,NaN,NaN
ICIXQGGQPKFQRL-UHFFFAOYSA-N,COc1cccc(c1)N1CCc2c(S1(=O)=O)sc(c2)S(=O)(=O)N,COc1cccc(c1)N1CCc2c(S1(=O)=O)sc(c2)S(=O)(=O)N,247.5,0.115849482,0.0541,-8.6152,4.69031,333.91919850660827,0.009389229,-1.7007,-8.702,306.98514,-1.662,-8.792,3.69553,NaN,NaN,NaN,NaN,NaN,NaN,NaN
KOHMRGHDJSANIV-UHFFFAOYSA-N,Cc1ccc(cc1)C(=O)OCc1ccc2c3c1cccc3c1c3c2cccc3ccc1,Cc1ccc(cc1)C(=O)OCc1ccc2c3c1cccc3c1c3c2cccc3ccc1,392.6,0.637719494,-0.5838,-7.1775,2.76585,412.86779355812075,0.668038374,-0.888,-6.9172,83.79052,-1.401,-8.107,2.84889,NaN,NaN,445.0,NaN,438.0,NaN,NaN
BSKHPKMHTQYZBB-UHFFFAOYSA-N,Cc1ccccn1,Cc1ccccn1,245.7,0.008328241,1.3367,-9.2891,1.93114,286.00737809804764,0.003520315,0.2584,-8.8746,13.49459,-0.109,-9.871,1.97649,NaN,NaN,550.0,41686.93834703355,232.0,5011.872336272725,NaN
SJNXLFCTPWBYSE-UHFFFAOYSA-N,c1ccc(cc1)c1ccc(cc1)c1ccc(s1)c1ccc(s1)c1ccc(cc1)c1ccccc1,c1ccc(cc1)c1ccc(cc1)c1ccc(s1)c1ccc(s1)c1ccc(cc1)c1ccccc1,359.9,2.103077025,-0.1684,-7.253,0.00672,432.30194702058463,1.070412632,-0.7446,-6.9797,0.06549,-1.227,-8.518,0.01221,377.81628781460097,1.8066414217,390,NaN,390,NaN,NaN
XQAVRPAEGBNATF-UHFFFAOYSA-N,Cc1ccc(cc1)C=Cc1ccc(cc1)c1nc(c(n1c1ccc(cc1)Cl)c1ccccc1)c1ccccc1,Cc1ccc(cc1)C=Cc1ccc(cc1)c1nc(c(n1c1ccc(cc1)Cl)c1ccccc1)c1ccccc1,324.6,1.804842693,0.0186,-7.3639,2.42275,358.85440927786874,0.538569558,-0.4134,-7.252,214.37778,-0.835,-8.488,2.75663,330.4658910635947,1.6828775646,335,NaN,335,NaN,NaN
GKXBSQRTGXSDFG-UHFFFAOYSA-N,CN(CCNc1ccc2c3c1cccc3c(=O)n(c2=O)C(C(=O)Nc1ccc(cc1)S(=O)(=O)c1ccc(cc1)N)CC(C)C)C,CN(CCNc1ccc2c3c1cccc3c(=O)n(c2=O)C(C(=O)Nc1ccc(cc1)S(=O)(=O)c1ccc(cc1)N)CC(C)C)C,351.5,0.371593156,-0.6989,-8.0275,17.62156,376.3940449468842,0.387900454,-1.7157,-8.3292,416.37142,-1.427,-8.595,13.2631,NaN,NaN,527.0,20417.379446695275,436.0,20417.379446695275,NaN
FNQJDLTXOVEEFB-UHFFFAOYSA-N,c1ccc2c(c1)snn2,c1ccc2c(c1)snn2,316.1,0.008060546,0.0166,-9.1674,3.77491,309.8055932171506,0.102190303,-1.109,-9.163,90.47094,-1.303,-9.289,4.27791,NaN,NaN,571,18240,571,18240,NaN
BNUOYBPNRZNRJL-UHFFFAOYSA-N,CCCCCC(P(c1ccccc1)c1ccccc1)P(c1ccccc1)c1ccccc1,C(P(c1ccccc1)c1ccccc1)P(c1ccccc1)c1ccccc1,246.6,0.012213583,0.9788,-8.0193,0.02405,270.7669762076953,0.000902204,0.505,-8.502,19.68899,-0.673,-8.738,0.43102,NaN,NaN,196,NaN,196,NaN,NaN
UCNVFOCBFJOQAL-UHFFFAOYSA-N,ClC(=C(c1ccc(cc1)Cl)c1ccc(cc1)Cl)Cl,ClC(=C(c1ccc(cc1)Cl)c1ccc(cc1)Cl)Cl,255.2,0.314113718,0.3233,-8.5422,0.04039,375.70969213788993,0.003159248,-1.2501,-9.2186,67.37608,-0.723,-9.747,0.21633,NaN,NaN,NaN,NaN,NaN,NaN,NaN
FSMXKGJJGIHZLM-UHFFFAOYSA-N,CCN(c1ccc(cc1)C=Cc1ccn2c(c1)nc(c2)c1ccc(cc1)OC)CC,CCN(c1ccc(cc1)C=Cc1ccn2c(c1)nc(c2)c1ccc(cc1)OC)CC,336.9,1.871016096,0.31,-6.8045,5.10722,384.44712683877106,0.712138958,-0.5069,-7.0732,231.84499,-0.643,-7.793,5.65246,348.917073814486,1.7927010137,453.0,29512.09226666384,357.0,19952.62314968879,Toluene