inchikey,smi_pre,smi_post,lambda_sTDA (nm),f1_sTDA,lumo_dft,homo_dft,dmom_dft (D),lambda_z (nm),f1_z,lumo_z,homo_z,dmom_z (D),lumo_mopac,homo_mopac,dmom_mopac (D),lambda_tddft (nm),f1_tddft,lambda_exp_max (nm),epsilon_exp_max ,lambda_exp_min (nm),epsilon_exp_min ,solvent
SJZAGQCXFATGRT-UHFFFAOYSA-N,CC(c1ccc(c2c(c1)c(C)cc2N=Nc1sc2c(n1)ccc(c2)[N+](=O)[O-])C)C,CC(c1ccc(c2c(c1)c(C)cc2N=Nc1sc2c(n1)ccc(c2)[N+](=O)[O-])C)C,481.7,0.01254806,-1.3491,-7.4722,12.52658,583.7297476718628,0.029945625,-2.1613,-7.4019,521.75589,-2.027,-8.324,12.41429,NaN,NaN,551.0,NaN,230.0,NaN,NaN
AHIZQZRPTXZICV-UHFFFAOYSA-N,Cc1ccc2c(c1)C(=O)CC=N2,Cc1ccc2c(c1)C(=O)CC=N2,308.4,7.8548e-05,-0.1162,-8.8116,1.21550,319.7117029538516,0.140803031,-0.7384,-8.5182,47.36786,-0.962,-9.368,0.65917,NaN,NaN,336.0,NaN,335.0,NaN,NaN
XIFJZJPMHNUGRA-UHFFFAOYSA-N,CNc1ccc(cc1)[N+](=O)[O-],CNc1ccc(cc1)[N+](=O)[O-],311.6,2.156e-06,0.0427,-8.3038,7.60118,419.85844363529856,0.000811113,-2.25,-8.8672,105.66939,-0.79,-8.977,8.68087,NaN,NaN,384.8,NaN,374.2,NaN,NaN
WQBSYLBFNGNGOZ-UHFFFAOYSA-N,N=C1N=C(C(=C1c1cccn1c1cccs1)c1csc(c1)c1ccccc1)c1ccccc1,N=C1N=C(C(=C1c1cccn1c1cccs1)c1csc(c1)c1ccccc1)c1ccccc1,413.7,0.122343625,-0.8543,-7.826,4.38723,457.5062671789803,0.154066218,-1.2646,-7.5789,144.01966,-1.424,-8.637,4.85347,NaN,NaN,625.0,NaN,308.0,NaN,NaN
DKJGFYDRAUGDKJ-UHFFFAOYSA-N,N#CC(=Cc1ccc(s1)c1ccc2c3c1ccc1c3c(cc2)ccc1)C(=O)O,N#CC(=Cc1ccc(s1)c1ccc2c3c1ccc1c3c(cc2)ccc1)C(=O)O,362.9,1.222043814,-1.1193,-7.6847,7.11793,410.40780670474567,0.802373945,-1.6187,-7.5249,316.61374,-1.833,-8.583,4.41767,NaN,NaN,483.4,24900.0,277.0,7900.0,THF
SAISVCDTEPLXEG-UHFFFAOYSA-N,CCn1c2c(cc(cc2c2c1ccc(c2)C(C)(C)C)C(C)(C)C)N(c1ccccc1)c1ccccc1,CCn1c2c(cc(cc2c2c1ccc(c2)C(C)(C)C)C(C)(C)C)N(c1ccccc1)c1ccccc1,301.8,0.129242414,0.8417,-7.1772,0.70092,343.5416968841886,0.060372066,0.0878,-7.2954,101.54898,-0.254,-7.795,0.46305,NaN,NaN,362.0,NaN,360.0,NaN,NaN
VGPRDWLWSJTWOD-UHFFFAOYSA-N,Cc1cc(=O)oc2c1ccc(c2)C#C,Cc1cc(=O)oc2c1ccc(c2)C#C,285.4,0.398018004,-0.3647,-8.7271,5.12733,332.6648736396664,0.49056981,-1.1664,-8.5604,76.75337,-1.315,-9.459,5.312,NaN,NaN,328.0,22000,309.0,22000,NaN
BIBXZJXPLLSIOJ-IUMNDLPASA-N,COc1cc(OC)cc2c1c(CC(=O)NCc1nnn(c1)C([C@H]1O[C@H]([C@@H]([C@@H]1O)O)n1ccc(=O)[nH]c1=O)O)cc(=O)o2,COc1cc(OC)cc2c1c(CC(=O)NCc1nnn(c1)C([C@H]1O[C@H]([C@@H]([C@@H]1O)O)n1ccc(=O)[nH]c1=O)O)cc(=O)o2,280.4,0.364723223,0.104,-8.4243,1.99454,332.3082240833655,0.422632358,-1.2578,-8.7732,137.30482,-0.956,-9.344,5.07847,NaN,NaN,323,NaN,323,NaN,NaN
GXSGBAWBUWYIQI-UHFFFAOYSA-N,O=C1CCC=C2N1c1ccc3c(c1C2(C)C)cccc3,O=C1CCC=C2N1c1ccc3c(c1C2(C)C)cccc3,303.7,0.082167565,0.5761,-7.5762,3.21131,331.41993692997505,0.030688995,-0.1906,-7.5587,71.57442,-0.626,-8.254,3.26891,NaN,NaN,251.0,32409.999999999996,206.0,23560.0,NaN
GFEWJHOBOWFNRV-UHFFFAOYSA-N,c1ccc2c(c1)C(c1ccc(cc1)n1c3ccccc3c3c1cccc3)(c1ccc(cc1)n1c3ccccc3c3c1cccc3)c1c2cccc1,c1ccc2c(c1)C(c1ccc(cc1)n1c3ccccc3c3c1cccc3)(c1ccc(cc1)n1c3ccccc3c3c1cccc3)c1c2cccc1,284.9,0.078286241,0.5123,-7.6469,2.19352,324.90618030792365,0.223920326,-0.1079,-7.5553,13.14054,-0.634,-8.172,1.78663,NaN,NaN,431.0,NaN,293.0,NaN,dichloromethane
RGWSWVYRQBVBEJ-UHFFFAOYSA-N,Cc1cc(C=Nc2c(cccc2C(C)C)C(C)C)c(c(c1)C(c1ccccc1)c1ccccc1)O,Cc1cc(C=Nc2c(cccc2C(C)C)C(C)C)c(c(c1)C(c1ccccc1)c1ccccc1)O,295.9,0.268159641,0.3387,-8.1375,1.93441,363.3769003678302,0.002223081,-0.479,-8.1656,56.01648,-0.513,-8.733,2.86607,NaN,NaN,346.0,NaN,101.0,NaN,Toluene
ZLBGALMBMVIVQI-UHFFFAOYSA-N,Brc1ccc(c(c1)C=Nc1cccc2c1nc(cc2)c1nc2c([nH]1)cccc2)O,Brc1ccc(c(c1)C=Nc1cccc2c1nc(cc2)c1nc2c([nH]1)cccc2)O,351.5,0.259418642,-0.2556,-7.7528,3.52465,357.61234036776364,0.25078683,-0.822,-7.7487,303.99883,-1.375,-8.798,3.12491,NaN,NaN,164.0,NaN,125.0,NaN,NaN
OAVOFHDHLJPMPK-UHFFFAOYSA-N,Cc1ccc(cc1)N=C(C(F)(F)F)n1c(=S)sc2c1cccc2,Cc1ccc(cc1)N=C(C(F)(F)F)n1c(=S)sc2c1cccc2,309.0,0.015572863,0.11,-8.2418,4.46316,448.568011597336,8.6661e-05,-0.8987,-8.4331,262.53499,-1.297,-8.538,4.87792,NaN,NaN,NaN,NaN,NaN,NaN,NaN
QSHXNMCFQNGRGO-MRXNPFEDSA-N,COc1ccc(cc1)[C@@H](C#Cc1ccccc1)O,COc1ccc(cc1)[C@@H](C#Cc1ccccc1)O,246.7,0.291110195,0.8204,-8.3453,1.66168,331.95233843508345,0.000269271,0.1926,-8.2292,54.60613,-0.417,-8.982,2.69292,NaN,NaN,NaN,NaN,NaN,NaN,NaN
KYRIUPNSNLJHLW-UHFFFAOYSA-N,CC(=O)OCCn1c(=O)c2ccc(c3c2c(c1=O)ccc3)Oc1ccc(cc1)F,CC(=O)OCCn1c(=O)c2ccc(c3c2c(c1=O)ccc3)Oc1ccc(cc1)F,324.5,0.348005652,-0.5654,-8.3672,2.68480,345.45611146699264,0.399261331,-1.4678,-8.4399,48.25272,-1.509,-9.26,3.03536,NaN,NaN,NaN,NaN,NaN,NaN,NaN
QMGHQYQKEGGMHM-UHFFFAOYSA-N,COc1cc(ccc1OC)C1C(C(C1c1ccnc2c1cccc2)c1ccc(c(c1)OC)OC)c1ccnc2c1cccc2,COc1cc(ccc1OC)C1C(C(C1c1ccnc2c1cccc2)c1ccc(c(c1)OC)OC)c1ccnc2c1cccc2,280.8,0.171779767,0.1659,-8.2977,0.91416,311.20531728289075,0.078148786,-0.5845,-8.2517,37.12948,-0.753,-8.42,5.67133,NaN,NaN,282,NaN,282,NaN,NaN
XTXADWNGGZQICC-UHFFFAOYSA-N,COc1ccc2c(c1)sc(n2)N=Nc1c([nH]c2c1cccc2)c1ccccc1,COc1ccc2c(c1)sc(n2)N=Nc1c([nH]c2c1cccc2)c1ccccc1,466.0,0.00199204,-0.6549,-7.4453,4.34131,533.0361066444698,0.027122477,-1.2981,-7.6068,113.18215,-1.214,-8.47,4.51415,NaN,NaN,543.0,NaN,478.0,NaN,Chloroform
GAYCMCVIJOIMAJ-UHFFFAOYSA-N,O=c1oc(cc2c1ccs2)C(O)(C)C,O=c1oc(cc2c1ccs2)C(O)(C)C,277.2,0.318722594,0.3312,-8.4729,3.64981,376.1656505021349,0.25119927,-1.1323,-8.2592,73.83037,-1.122,-9.016,2.34982,NaN,NaN,NaN,NaN,NaN,NaN,NaN
WDXJKFKTPDOTDR-UHFFFAOYSA-N,Nc1ccc2c3c1cccc3c1c2nc2c(n1)cccc2,Nc1ccc2c3c1cccc3c1c2nc2c(n1)cccc2,348.5,0.151294062,-0.2682,-7.5876,4.03415,376.85166688602936,0.002786074,-0.8355,-7.5871,5.43109,-1.221,-8.34,4.6826,NaN,NaN,412,NaN,412,NaN,NaN
UARAZWOPXWYGKD-UHFFFAOYSA-N,CCN(C1(N=Nc2nc3c([nH]2)cccc3)SC=C(N1)c1ccccc1)CC,CCN(C1(N=Nc2nc3c([nH]2)cccc3)SC=C(N1)c1ccccc1)CC,431.3,0.129476238,-0.4504,-7.3832,1.63666,504.8216547455361,0.004987096,-1.424,-7.9661,87.22758,-1.306,-8.059,0.51029,NaN,NaN,510,24500,510,24500,NaN
FAKDTTOZVOXYFM-UHFFFAOYSA-N,CSC1=C(SC)SC(=Cc2ccc(s2)C=Cc2ccc(cc2)[N+](=O)[O-])S1,CSC1=C(SC)SC(=Cc2ccc(s2)C=Cc2ccc(cc2)[N+](=O)[O-])S1,383.4,1.946791024,-0.9157,-7.2162,7.73332,432.0006913083751,0.566944507,-2.4351,-7.8138,259.02186,-1.562,-8.305,7.39903,416.4036708958504,1.6986134153,490,NaN,490,NaN,NaN
JURMZAYTAIJJGS-UHFFFAOYSA-N,CCOC(=O)C=Cc1cc2ccc(cc2oc1=O)c1nnn(c1)Cc1ccccc1,CCOC(=O)C=Cc1cc2ccc(cc2oc1=O)c1nnn(c1)Cc1ccccc1,323.8,1.343557256,-0.7742,-8.2474,4.99393,388.6651987633344,0.958231088,-1.6866,-8.191,128.16647,-1.678,-9.195,5.23587,337.91445588629216,1.1915057962,370.0,7700,358.0,3400,NaN
IMOFVOAASVBOEY-UHFFFAOYSA-N,N#CC(=Cc1ncc2c(n1)ccc(c2)N(c1ccccc1)c1ccccc1)C(=O)O,N#CC(=Cc1ncc2c(n1)ccc(c2)N(c1ccccc1)c1ccccc1)C(=O)O,361.6,0.618227902,-1.0838,-7.6878,7.93691,403.988916277301,0.525807756,-1.7821,-7.5659,325.44933,-1.904,-8.404,6.24282,NaN,NaN,434,NaN,434,NaN,NaN
HXBBMDYVMJOLBE-UHFFFAOYSA-N,CCCCCCCCCCCCn1c(nc(c1c1ccccc1)c1ccccc1)c1ccc(cc1)c1nc(c(n1CCCCCCCCCCCC)c1ccccc1)c1ccccc1,Cn1c(nc(c1c1ccccc1)c1ccccc1)c1ccc(cc1)c1nc(c(n1C)c1ccccc1)c1ccccc1,299.0,1.71058516,0.4558,-7.3042,0.01081,367.9056332507527,0.745851124,-0.3275,-7.0842,0.28131,-0.65,-8.383,0.14464,309.6430983472926,1.5082363475,366,NaN,366,NaN,NaN
MFGWQGVVYHEZIB-UHFFFAOYSA-N,Fc1ccc(cc1)C(=C)c1[nH]c2c(c1CCNS(=O)(=O)c1ccccc1[N+](=O)[O-])cccc2,Fc1ccc(cc1)C(=C)c1[nH]c2c(c1CCNS(=O)(=O)c1ccccc1[N+](=O)[O-])cccc2,317.4,0.012340808,-0.6828,-8.0056,6.78774,633.2185822548706,0.0092147,-2.9019,-7.8626,236.47062,-1.433,-8.346,6.59983,NaN,NaN,301,NaN,301,NaN,NaN
IXENHSDBFJMWBZ-UHFFFAOYSA-N,FC(c1ccc(nc1)c1cccc2c1cccc2)(F)F,FC(c1ccc(nc1)c1cccc2c1cccc2)(F)F,296.4,0.251173833,0.031,-8.237,2.85960,315.4011661294929,0.037514835,-0.5535,-8.0762,288.72322,-1.234,-9.188,3.70189,NaN,NaN,298.0,NaN,229.0,NaN,CH 2 Cl
BPYKTIZUTYGOLE-UHFFFAOYSA-N,C=CC1=C(C)C(=Cc2[nH]c(c(c2C)CCC(=O)O)Cc2[nH]c(c(c2CCC(=O)O)C)C=C2NC(=O)C(=C2C=C)C)NC1=O,C=CC1=C(C)C(=Cc2[nH]c(c(c2C)CCC(=O)O)Cc2[nH]c(c(c2CCC(=O)O)C)C=C2NC(=O)C(=C2C=C)C)NC1=O,335.1,1.469665298,-0.3605,-7.418,6.07701,405.17711897223415,0.633580367,-1.0125,-7.3304,136.42694,-1.321,-8.322,5.38068,375.823561713366,1.1386388662,667.0,NaN,491.0,NaN,NaN
RJNYNDHYSJRRDW-UHFFFAOYSA-N,Oc1ccc(c(c1)O)N=Nc1ccccn1,Oc1ccc(c(c1)O)N=Nc1ccccn1,412.4,0.000353349,-0.6425,-8.1774,1.52256,542.3630726399986,9.5789e-05,-1.4785,-8.2637,61.79699,-1.428,-9.128,1.77249,NaN,NaN,410,NaN,410,NaN,NaN
JROJVXYWOWQBAY-UHFFFAOYSA-N,c1ccc2c(c1)c1ccc(cc1c1c2cccc1)c1cc(cc(c1)n1c2ccccc2c2c1cccc2)n1c2ccccc2c2c1cccc2,c1ccc2c(c1)c1ccc(cc1c1c2cccc1)c1cc(cc(c1)n1c2ccccc2c2c1cccc2)n1c2ccccc2c2c1cccc2,301.7,0.071696885,0.1198,-7.772,2.09475,337.00516011281235,0.002473864,-0.2763,-7.6991,32.23281,-0.905,-8.259,1.43836,NaN,NaN,293.0,NaN,245.0,NaN,NaN
YZUINPXOJSDEMU-UHFFFAOYSA-N,CCN(c1ccc(cc1)c1ccc(cc1)C(=C(C#N)C#N)c1ccc(cc1)c1ccc(cc1)N(CC)CC)CC,CCN(c1ccc(cc1)c1ccc(cc1)C(=C(C#N)C#N)c1ccc(cc1)c1ccc(cc1)N(CC)CC)CC,322.7,0.889476824,-0.7483,-7.3341,11.19652,346.6150360791268,0.420922947,-0.9479,-7.5986,205.72913,-1.281,-8.051,10.17221,356.2661791593329,0.5971330606,460,NaN,460,NaN,NaN
WVNBXLBGCKADSM-UHFFFAOYSA-N,N#CC(=Cc1ccc(s1)C(=Cc1ccc2c3c1ccc1c3c(cc2)ccc1)C#N)C(=O)O,N#CC(=Cc1ccc(s1)C(=Cc1ccc2c3c1ccc1c3c(cc2)ccc1)C#N)C(=O)O,385.9,0.515025993,-1.3845,-7.8474,4.84658,430.0527173274494,0.444698911,-1.7851,-7.5864,292.67546,-1.999,-8.643,3.33808,NaN,NaN,277.5,9830.0,277.5,9830.0,NaN
MCRPKBUFXAKDKI-UHFFFAOYSA-N,CCOC(=O)c1ccncc1,CCOC(=O)c1ccncc1,270.3,0.007351005,0.1278,-9.8243,2.79334,310.34843155320067,0.003723775,-1.0524,-9.5126,22.18272,-0.936,-10.455,2.35622,NaN,NaN,NaN,NaN,NaN,NaN,NaN
NQAXRGCKEHWNIU-UHFFFAOYSA-N,CC(=O)CC(c1ccccc1Cl)O,CC(=O)CC(c1ccccc1Cl)O,263.0,0.000343307,1.2325,-9.1829,2.98063,332.39731476006347,4.463e-05,-0.1198,-9.179,69.10815,-0.314,-9.834,3.40439,NaN,NaN,NaN,NaN,NaN,NaN,NaN
YXJZDWWCZJDWTF-UHFFFAOYSA-N,c1csc(c1)C=Cc1ccc(s1)c1cnc2c(c1)ccc1c2ncc(c1)c1ccc(s1)C=Cc1cccs1,c1csc(c1)C=Cc1ccc(s1)c1cnc2c(c1)ccc1c2ncc(c1)c1ccc(s1)C=Cc1cccs1,375.7,3.6936969,-0.5929,-7.2968,2.91297,437.1798251251892,2.211144964,-1.0227,-7.1289,46.09924,-1.416,-8.685,3.69742,393.7631181415805,3.3451542963,505.0,70800.0,248.0,30600.0,CH 2 Cl 2
GURRCNMNRVVVLN-UHFFFAOYSA-N,c1ccc2c(c1)cc(cc2)C#Cc1ccc(cc1)N=Nc1ccc(cc1)C#Cc1ccc2c(c1)cccc2,c1ccc2c(c1)cc(cc2)C#Cc1ccc(cc1)N=Nc1ccc(cc1)C#Cc1ccc2c(c1)cccc2,447.8,8.7283e-05,-1.0415,-7.6497,0.15322,524.9119322840968,0.03542195,-1.3258,-7.4093,10.53254,-1.56,-8.668,0.21716,NaN,NaN,333,NaN,333,NaN,NaN
DKMNHISERSUMCV-UHFFFAOYSA-N,Nc1nc(c(s1)N=Nc1ccccc1)c1ccc(cc1)NC(=O)c1ccccc1,Nc1nc(c(s1)N=Nc1ccccc1)c1ccc(cc1)NC(=O)c1ccccc1,452.3,0.010613241,-0.5137,-7.4815,4.02943,553.5008857388556,0.003472051,-1.108,-7.3355,231.87472,-1.235,-8.293,4.15565,NaN,NaN,478,NaN,478,NaN,DMSO
WTVUXPGPRIVRRN-UHFFFAOYSA-N,N#CC(=Cc1cn(nc1c1ccccc1)c1ccccc1)c1nc2c(s1)cccc2,N#CC(=Cc1cn(nc1c1ccccc1)c1ccccc1)c1nc2c(s1)cccc2,328.6,1.304895862,-0.706,-8.089,1.94917,399.43362888371024,0.817649532,-1.3347,-7.84,152.58430,-1.488,-8.876,2.05388,351.1007079807421,1.0260344929,383.0,NaN,375.0,NaN,Toluene
MFXDGHYQCKLQJA-UHFFFAOYSA-N,C=CCOc1nc(Nc2ccc3c(c2)nn(n3)c2ccccc2O)nc(n1)N1C(C)(C)CC(CC1(C)C)OCC=C,C=CCOc1nc(Nc2ccc3c(c2)nn(n3)c2ccccc2O)nc(n1)N1C(C)(C)CC(CC1(C)C)OCC=C,311.9,1.074261117,-0.1415,-7.9334,4.49346,397.8953735735034,0.491034173,-1.3613,-7.9769,262.01899,-1.197,-8.499,5.19154,NaN,NaN,340,NaN,340,NaN,NaN
NGLUDZFRWHXAEX-UHFFFAOYSA-N,Oc1ccc(c2c1nccc2)N=Nn1scc[nH]1,Oc1ccc(c2c1nccc2)N=Nn1scc[nH]1,359.5,0.175452109,-0.2809,-7.7773,3.62561,437.4883500547059,0.028603264,-1.1184,-7.9938,111.06797,-1.372,-8.277,4.58199,NaN,NaN,547,NaN,547,NaN,DMSO
CDKDZKXSXLNROY-UHFFFAOYSA-N,CCCCCCCCc1ccccc1,Cc1ccccc1,231.5,0.001921731,1.8039,-8.9277,0.38402,268.88787335828164,0.006975536,0.7349,-8.7484,10.16714,0.317,-9.426,0.64743,NaN,NaN,NaN,NaN,NaN,NaN,NaN
HGZSZFFSUOITSE-UHFFFAOYSA-N,CCCCCCCCC1(CCCCCCCC)c2cc3nc([nH]c3cc2c2c1cc1nc([nH]c1c2)c1ccc(cc1)F)c1ccc(cc1)F,C1(C)c2cc3nc([nH]c3cc2c2c1cc1nc([nH]c1c2)c1ccc(cc1)F)c1ccc(cc1)F,326.9,1.971021889,0.0338,-7.2606,4.74477,398.9195572892653,1.376109543,-0.8309,-7.0774,79.83100,-1.217,-8.472,5.10249,332.69163874000975,1.8295482278,370.0,NaN,366.0,NaN,NaN
MZUFUOVGQIQITC-UHFFFAOYSA-N,CC1(C)c2ccccc2N(c2c1cccc2)c1ccc(c2c1nc(c1ccccc1)c(n2)c1ccccc1)N1c2ccccc2C(c2c1cccc2)(C)C,CC1(C)c2ccccc2N(c2c1cccc2)c1ccc(c2c1nc(c1ccccc1)c(n2)c1ccccc1)N1c2ccccc2C(c2c1cccc2)(C)C,382.3,0.018076624,-0.5734,-7.234,2.25681,396.6225156925901,0.008904029,-0.9067,-7.4929,49.29451,-1.208,-7.966,3.98447,NaN,NaN,482.0,NaN,348.0,NaN,NaN
QABGSDRIRRSZMK-UHFFFAOYSA-N,CCCCC(CC1(CC(CCCC)CC)c2cc(ccc2c2c1cccc2)c1ccc2c(c1)C(CC(CCCC)CC)(CC(CCCC)CC)c1c2cccc1)CC,C(CC1(CC(C)CC)c2cc(ccc2c2c1cccc2)c1ccc2c(c1)C(CC(C)CC)(CC(C)CC)c1c2cccc1)CC,296.2,1.323633132,0.34,-7.6245,0.41769,327.5672348890453,0.997028239,-0.165,-7.4704,90.12005,-0.544,-8.546,0.87434,298.9155528454589,1.2881771492,320,NaN,320,NaN,NaN
HYWNKWIHURAKCK-UHFFFAOYSA-N,O=Cc1ccc(cc1)C=C(c1ccc(cc1)N(C)C)c1ccc(cc1)N(C)C,O=Cc1ccc(cc1)C=C(c1ccc(cc1)N(C)C)c1ccc(cc1)N(C)C,333.9,0.895211178,0.0161,-6.9823,7.61235,358.9583045903406,7.5166e-05,-0.7119,-7.4246,123.96733,-0.553,-8.012,6.41356,360.09466181417747,0.7796883521,271,NaN,271,NaN,NaN
KYXRTYSCZDNTLF-UHFFFAOYSA-N,CCCCCCC1(CCCCCC)c2cc(ccc2c2c1cccc2)C1=C(c2ccc3c(c2)C(CCCCCC)(CCCCCC)c2c3cccc2)C(C(C1(F)F)(F)F)(F)F,C1(C)c2cc(ccc2c2c1cccc2)C1=C(c2ccc3c(c2)C(C)(C)c2c3cccc2)C(C(C1(F)F)(F)F)(F)F,298.3,0.417827683,-0.145,-8.157,5.93384,344.8795505020964,0.222985375,-0.7024,-7.857,619.52840,-1.294,-8.996,5.61235,NaN,NaN,335.0,NaN,321.0,NaN,NaN
UHUABCYVZQENSX-UHFFFAOYSA-N,Oc1ccccc1C=Nc1cccc2c1nc(cc2)c1nc2c([nH]1)cccc2,Oc1ccccc1C=Nc1cccc2c1nc(cc2)c1nc2c([nH]1)cccc2,333.9,0.362451087,-0.4793,-8.0467,1.97972,382.7854226783071,0.264753692,-1.0621,-7.725,39.01284,-1.435,-8.836,1.37059,NaN,NaN,160.0,NaN,125.0,NaN,NaN
KNPYWGNONCRLQX-UHFFFAOYSA-N,C#Cc1ccnc(c1)c1cc(cc(c1)c1nccc(c1)C#C)c1nccc(c1)C#C,C#Cc1ccnc(c1)c1cc(cc(c1)c1nccc(c1)C#C)c1nccc(c1)C#C,272.0,0.003964854,-0.0109,-8.5557,2.29340,307.50049207714204,0.001542082,-0.4136,-8.3065,16.33299,-0.896,-9.376,0.81587,NaN,NaN,284,59600.0,284,59600.0,propylene carbonate
RSJFFWIWLODNAQ-UHFFFAOYSA-N,COc1ccc(cc1)n1nc(c(n1)N1CCOCC1)C#N,COc1ccc(cc1)n1nc(c(n1)N1CCOCC1)C#N,286.8,0.659122105,0.3301,-7.9083,6.15830,366.0590445984755,0.532551676,-1.177,-8.215,60.18006,-1.024,-8.751,5.75381,NaN,NaN,325,NaN,325,NaN,NaN
JENODJZXQQLAAW-UHFFFAOYSA-N,Cc1cc(C(c2ccccc2)c2ccccc2)c(c(c1)c1nc2c([nH]1)cccc2)O,Cc1cc(C(c2ccccc2)c2ccccc2)c(c(c1)c1nc2c([nH]1)cccc2)O,292.4,0.68491755,0.4183,-7.8244,3.73154,350.1389392982312,0.557101718,-0.6085,-7.7522,81.04314,-0.793,-8.607,4.05943,NaN,NaN,224,NaN,224,NaN,NaN
MUYYEBBDAYXRBF-UHFFFAOYSA-N,Nc1ccc(cc1)c1ccc(n1c1ccc(cc1)C(c1ccccc1)(c1ccccc1)c1ccccc1)c1ccc(cc1)N,Nc1ccc(cc1)c1ccc(n1c1ccc(cc1)C(c1ccccc1)(c1ccccc1)c1ccccc1)c1ccc(cc1)N,271.8,0.71688327,1.1112,-6.8729,1.32045,342.87665488247694,0.408436848,0.0281,-6.9697,54.57860,-0.148,-7.835,2.39067,NaN,NaN,307,NaN,307,NaN,NaN
PGXSUPAITCLYIY-UHFFFAOYSA-N,COC1OC(=O)C(=C1NCc1ccc(cc1)C)Br,COC1OC(=O)C(=C1NCc1ccc(cc1)C)Br,237.3,0.132207238,1.1426,-8.3845,7.41545,321.03624651865266,2.4722e-05,-0.6396,-8.6276,356.68927,-0.408,-8.787,8.20625,NaN,NaN,275,NaN,275,NaN,NaN
BCMZGXMPXXSOMG-UHFFFAOYSA-N,COc1cc(C=CC(=O)c2nnn(c2C)c2ccnc3c2ccc(c3)Cl)cc(c1OC)OC,COc1cc(C=CC(=O)c2nnn(c2C)c2ccnc3c2ccc(c3)Cl)cc(c1OC)OC,319.2,0.003156601,-0.5685,-8.4299,1.65662,374.00964828206236,0.003963752,-1.1469,-8.4922,239.01362,-1.64,-8.97,3.279,NaN,NaN,235,NaN,235,NaN,methanol
PQTQLYHSTODKRL-UHFFFAOYSA-N,CC(n1cc(n(c1=S)C)P(=O)(c1ccccc1)c1ccccc1)C,CC(n1cc(n(c1=S)C)P(=O)(c1ccccc1)c1ccccc1)C,249.4,0.165698589,0.5893,-7.4729,6.89208,378.00060489482826,8.7475e-05,-0.0758,-8.0677,145.97767,-0.468,-7.726,8.2737,NaN,NaN,273,NaN,273,NaN,NaN
ZTHAKNQILNEWTE-UHFFFAOYSA-N,Cc1ccc(cc1)OCCN1CCCn2c1nc1c2c(=O)n(c(=O)n1C)C,Cc1ccc(cc1)OCCN1CCCn2c1nc1c2c(=O)n(c(=O)n1C)C,253.1,0.361112748,1.5756,-7.4949,6.02796,339.4967097631535,0.255733834,-0.5191,-8.168,164.40984,-0.082,-8.376,5.32619,NaN,NaN,297.5,NaN,297.5,NaN,NaN
PQNBYQPCNPLUMW-UHFFFAOYSA-N,COc1ccc2c(c1)n(C)c1c2c(OC)c2c(c1OC)cccc2,COc1ccc2c(c1)n(C)c1c2c(OC)c2c(c1OC)cccc2,337.6,0.111722819,0.5683,-6.9661,3.71304,363.3769003678302,0.095512358,-0.2623,-7.1337,30.97978,-0.663,-7.776,3.21943,NaN,NaN,342.0,NaN,272.0,NaN,CH 2 Cl
HXHWSAZORRCQMX-UHFFFAOYSA-N,CCCSc1ccc2c(c1)[nH]c(n2)NC(=O)OC,CCCSc1ccc2c(c1)[nH]c(n2)NC(=O)OC,257.5,0.271918494,1.1984,-8.0533,4.47973,321.11939498964944,0.276020538,-0.4017,-7.8678,94.11437,-0.613,-8.364,3.57261,NaN,NaN,295,NaN,295,NaN,NaN
XCNFVPRXBZQNQC-NYFMKLKXSA-N,COC(=O)[C@@H]([C@@H](C=C(c1ccccc1)O[Si](C(C)(C)C)(c1ccccc1)c1ccccc1)C)c1ccc(cc1)C(F)(F)F,COC(=O)[C@@H]([C@@H](C=C(c1ccccc1)O[Si](C(C)(C)C)(c1ccccc1)c1ccccc1)C)c1ccc(cc1)C(F)(F)F,239.4,0.094526478,1.0558,-8.2228,2.40657,284.89016177735215,0.00731969,-0.0499,-7.9824,309.73159,-0.525,-9.221,3.73883,NaN,NaN,NaN,NaN,NaN,NaN,NaN
NMKMHVSSKJXCBF-UHFFFAOYSA-N,c1ccc(cc1)c1nc2c(nc1c1ccccc1)c(ccc2c1ccc2c3c1ccc1c3c(cc2)ccc1)c1ccc2c3c1ccc1c3c(cc2)ccc1,c1ccc(cc1)c1nc2c(nc1c1ccccc1)c(ccc2c1ccc2c3c1ccc1c3c(cc2)ccc1)c1ccc2c3c1ccc1c3c(cc2)ccc1,346.5,0.880428935,-0.4312,-7.3306,0.91822,380.2030003235316,0.00818715,-0.9002,-7.1439,12.56824,-1.154,-8.242,1.02019,348.0453443259676,0.5380975235,281.0,74131.02413009177,276.0,57543.993733715666,DMSO
KHWCHTKSEGGWEX-RRKCRQDMSA-N,O[C@H]1C[C@@H](O[C@@H]1COP(=O)(O)O)n1cnc2c1ncnc2N,O[C@H]1C[C@@H](O[C@@H]1COP(=O)(O)O)n1cnc2c1ncnc2N,242.3,0.216281768,1.0256,-8.6247,3.83620,305.90722527881485,0.188409908,-0.1247,-8.137,115.48655,-0.465,-9.027,2.12337,NaN,NaN,556.0,NaN,532.0,NaN,NaN
HIFPKWHJSUZYMP-UHFFFAOYSA-N,O=C(c1ccccc1)On1c(=O)c2cccc3c2c(c1=S)ccc3,O=C(c1ccccc1)On1c(=O)c2cccc3c2c(c1=S)ccc3,405.5,0.000880654,-1.2584,-8.5864,3.31950,544.9854874967194,0.000235288,-1.8319,-8.5555,58.91476,-1.932,-8.732,3.08801,NaN,NaN,491.0,NaN,392.0,NaN,NaN
KHPCKJGVHCEXKX-UHFFFAOYSA-N,CCCCCCCCc1sc(c(c1C#N)C#N)c1ccc(s1)c1sc(c(c1C#N)C#N)CCCCCCCC,Cc1sc(c(c1C#N)C#N)c1ccc(s1)c1sc(c(c1C#N)C#N)C,331.6,0.929568591,-1.1475,-8.6817,11.86237,399.94902711452795,0.504359912,-1.5229,-8.2194,17.89632,-2.022,-9.612,1.98276,366.70864539851954,0.7858479919,392,NaN,392,NaN,NaN
FYFDQJRXFWGIBS-UHFFFAOYSA-N,[O-][N+](=O)c1ccc(cc1)[N+](=O)[O-],[O-][N+](=O)c1ccc(cc1)[N+](=O)[O-],321.7,1e-09,-1.5721,-10.8398,0.00009,344.8795505020964,0.066000133,-3.5133,-10.8428,0.00431,-2.422,-11.489,0.00078,NaN,NaN,490.0,NaN,490.0,NaN,NaN
JFRLRVQACQEDEL-UHFFFAOYSA-N,Fc1ccc(cc1)c1c([nH]c2c1cccc2)c1ccc(cc1)S(=O)(=O)N,Fc1ccc(cc1)c1c([nH]c2c1cccc2)c1ccc(cc1)S(=O)(=O)N,300.3,0.530848618,0.0055,-7.7998,2.73508,354.13938419167,0.41403222,-0.8469,-7.82,284.07098,-1.116,-8.708,3.06584,NaN,NaN,253,NaN,253,NaN,NaN
UZANWGLFDUSPMG-UHFFFAOYSA-N,CC1(C)C2CCCCN2c2c1c1ccccc1cc2,CC1(C)C2CN2c2c1c1ccccc1cc2,296.5,0.060846226,0.6981,-7.8394,1.42808,327.6538012830435,0.034071253,-0.0474,-7.5913,31.54630,-0.635,-8.709,2.39273,NaN,NaN,308.0,NaN,217.0,NaN,NaN
SKHOINKLSBWWFV-UHFFFAOYSA-N,CCCCC#Cc1cc(C#CCCCC)c2c3c1ccc1c3c(cc2)c(cc1C#CCCCC)C(=O)c1ccccc1,C#Cc1cc(C#C)c2c3c1ccc1c3c(cc2)c(cc1C#C)C(=O)c1ccccc1,379.4,0.807199007,-1.0702,-7.6224,3.01150,411.4975054945359,0.788152179,-1.2329,-7.2035,41.12067,-1.803,-8.453,3.15042,386.7737490929606,0.7180566965,252,NaN,252,NaN,NaN
SNPOCZMFIMDLEG-UHFFFAOYSA-N,COc1ccc(cc1)c1cc(n(n1)Cc1ccc(cc1)C(C)(C)C)c1nnc(o1)c1ccc(cc1)C,COc1ccc(cc1)c1cc(n(n1)Cc1ccc(cc1)C(C)(C)C)c1nnc(o1)c1ccc(cc1)C,279.2,1.188397295,0.2339,-7.7525,2.57695,371.3213489233413,0.662857327,-0.9799,-7.8272,171.19212,-1.027,-8.46,3.252,283.05600887913664,0.8273831734,281,NaN,281,NaN,dichloromethane
NNKQHCIAEYBTDO-UHFFFAOYSA-N,O=C(NC12CC3CC(C1)CC(C2)(C3)NC(=O)Nc1cccc2c1cccc2)Nc1cccc2c1cccc2,O=C(NC12CC3CC(C1)CC(C2)(C3)NC(=O)Nc1cccc2c1cccc2)Nc1cccc2c1cccc2,304.4,0.162167785,0.6278,-7.7374,2.20295,319.5469031069682,0.05432928,-0.1335,-7.6897,29.90227,-0.583,-8.354,4.46378,NaN,NaN,327.0,NaN,219.0,NaN,DMSO
BNJDHXSBOHZIII-UHFFFAOYSA-N,c1ccc(cc1)c1nc(n2c1cccc2)c1c2ccccc2cc2c1cccc2,c1ccc(cc1)c1nc(n2c1cccc2)c1c2ccccc2cc2c1cccc2,367.0,0.270374304,-0.318,-7.1706,3.32447,421.14197827956406,0.223547468,-0.7931,-6.7755,3.04882,-1.281,-8.213,4.14554,NaN,NaN,577.0,17090,304.0,14213,HCl