inchikey,smi_pre,smi_post,lambda_sTDA (nm),f1_sTDA,lumo_dft,homo_dft,dmom_dft (D),lambda_z (nm),f1_z,lumo_z,homo_z,dmom_z (D),lumo_mopac,homo_mopac,dmom_mopac (D),lambda_tddft (nm),f1_tddft,lambda_exp_max (nm),epsilon_exp_max ,lambda_exp_min (nm),epsilon_exp_min ,solvent
QUZIACFPISCKKT-UHFFFAOYSA-N,Clc1ccc(cc1)c1nn2c(c1)c(=O)[nH]c(c2)c1ccccc1,Clc1ccc(cc1)c1nn2c(c1)c(=O)[nH]c(c2)c1ccccc1,288.1,1.023476416,0.2521,-7.941,5.69573,381.8423110733097,0.437782841,-1.0951,-7.9992,245.55470,-1.147,-8.761,6.57436,298.4909671118267,0.8816212512,330,NaN,330,NaN,THF
OVEJDLBQUCYIIJ-UHFFFAOYSA-N,c1cc2ccc3c4c2c(c1)ccc4ccc3c1ccc2c(c1)c1cc(ccc1[nH]2)c1ccc2c3c1ccc1c3c(cc2)ccc1,c1cc2ccc3c4c2c(c1)ccc4ccc3c1ccc2c(c1)c1cc(ccc1[nH]2)c1ccc2c3c1ccc1c3c(cc2)ccc1,334.0,0.502234463,0.0519,-7.235,2.30384,363.1640257923364,0.290563172,-0.6097,-7.1939,34.16588,-1.073,-8.272,1.77171,NaN,NaN,281,NaN,281,NaN,NaN
WQQZBFWDBLRNIO-UHFFFAOYSA-N,OCC1OC(C(C1O)O)n1c(C=Cc2ccc(cc2)C(F)(F)F)nc2c1ncnc2N,OCC1OC(C(C1O)O)n1c(C=Cc2ccc(cc2)C(F)(F)F)nc2c1ncnc2N,307.0,1.215045267,-0.5485,-8.2289,2.83052,337.463795333434,0.642644565,-0.7925,-8.0121,175.08805,-1.345,-9.169,3.89529,327.35964780387457,1.0396431896,340,NaN,340,NaN,NaN
UAJVCELPUNHGKE-UHFFFAOYSA-N,CCCCCCC(c1ccccc1)O,C(c1ccccc1)O,231.9,0.002742136,1.808,-8.8943,1.73285,267.90016941552216,0.004301514,0.7517,-8.7806,31.61164,-0.153,-9.975,2.1331,NaN,NaN,NaN,NaN,NaN,NaN,NaN
FBUUCLJYORBACE-UHFFFAOYSA-N,NN=Cc1c(O)ccc2c1cccc2,NN=Cc1c(O)ccc2c1cccc2,311.0,0.289092286,0.4002,-7.5571,2.70935,342.30866484125806,0.243530206,-0.6937,-7.8611,73.18679,-0.838,-8.469,2.67732,NaN,NaN,304,251188.6431509582,304,251188.6431509582,EtOH
BWJOVCIYJAIRJN-UHFFFAOYSA-N,O=C(c1cc(C(=O)CC(=O)c2ccc(cc2)Cl)c(nc1C)C)CC(=O)c1ccc(cc1)Cl,O=C(c1cc(C(=O)CC(=O)c2ccc(cc2)Cl)c(nc1C)C)CC(=O)c1ccc(cc1)Cl,305.9,0.008225756,-0.5596,-9.4688,1.34932,365.6272438970913,0.00135231,-1.4461,-9.3956,100.28441,-1.2,-10.08,2.12289,NaN,NaN,344,44668.359215096345,344,44668.359215096345,NaN
FPPSLFVGUAGMLE-UHFFFAOYSA-N,OCCCC#Cc1c(CCCO)oc(=O)c2c1ccs2,OC#Cc1c(CO)oc(=O)c2c1ccs2,279.4,0.151051898,0.1142,-8.385,6.93407,373.22154848134755,0.101167305,-1.3677,-8.4292,52.50490,-1.323,-8.771,5.72066,NaN,NaN,NaN,NaN,NaN,NaN,NaN
HPWCUJMQGMTFNN-UHFFFAOYSA-N,O=P(c1ccc(nn1)P(=O)(c1ccccc1)c1ccccc1)(c1ccccc1)c1ccccc1,O=P(c1ccc(nn1)P(=O)(c1ccccc1)c1ccccc1)(c1ccccc1)c1ccccc1,329.3,0.016587176,-0.0137,-9.3814,4.53472,366.81715504586884,0.006258216,-0.7811,-9.0849,125.75952,-0.937,-9.484,3.82192,NaN,NaN,265,NaN,265,NaN,NaN
XKOCVVAAQIJQRR-UHFFFAOYSA-N,CCCCCCCCCCC(Cn1c2cc(c3ccc(s3)c3cccs3)c3c4c2c2c1cc(c1ccc(s1)c1cccs1)c1c2c(c4ccc3)ccc1)CCCCCCCC,C(Cn1c2cc(c3ccc(s3)c3cccs3)c3c4c2c2c1cc(c1ccc(s1)c1cccs1)c1c2c(c4ccc3)ccc1)C,410.5,1.462000373,-0.4399,-6.7601,2.09911,445.345540249654,0.89485379,-0.8842,-6.7161,83.70155,-1.228,-7.837,2.12723,427.9892057345419,1.3053498085,493.0,NaN,471.0,NaN,NaN
MVRDXWVWKOUPDO-UHFFFAOYSA-N,O=C1c2ccccc2C(=O)c2c1ccc(c2N)Br,O=C1c2ccccc2C(=O)c2c1ccc(c2N)Br,369.8,0.238748608,-1.1421,-8.3239,1.44323,413.97061237229934,7.8529e-05,-1.9927,-8.6769,311.70937,-1.7,-8.921,1.5536,NaN,NaN,473,NaN,473,NaN,NaN
JNRVIKDJAWYSSN-UHFFFAOYSA-N,Clc1cc(ccc1NC(C1=C(O)C(=O)c2c(C1=O)cccc2)c1ccc(cc1)[N+](=O)[O-])[N+](=O)[O-],Clc1cc(ccc1NC(C1=C(O)C(=O)c2c(C1=O)cccc2)c1ccc(cc1)[N+](=O)[O-])[N+](=O)[O-],356.4,0.003360592,-1.9954,-8.6339,10.99043,423.15426076963706,7.225e-06,-2.917,-9.3604,248.19089,-2.576,-9.286,12.64995,NaN,NaN,478,2884.031503126606,478,2884.031503126606,NaN
GYGXCXXVEPTSQL-UHFFFAOYSA-N,CCC(c1ccc2c(c1)cccc2)O,CCC(c1ccc2c(c1)cccc2)O,284.9,0.0544481,0.6604,-8.1663,1.24586,315.48142087914414,0.008518398,-0.147,-7.9726,29.58641,-0.643,-9.006,1.64482,NaN,NaN,NaN,NaN,NaN,NaN,NaN
LMMVFHAFEXMOLU-UHFFFAOYSA-N,Cc1ccc2c(c1)[n+]([O-])c1c(n2C)nc(nc1=O)c1ccccc1,Cc1ccc2c(c1)[n+]([O-])c1c(n2C)nc(nc1=O)c1ccccc1,466.9,9.8675e-05,-1.3708,-8.5846,10.21752,540.000864135469,0.000120442,-2.4578,-8.7583,105.55698,-1.716,-9.156,10.339,NaN,NaN,507.0,29512.09226666384,293.0,18197.008586099826,NaN
KSCJXKPGXVXODF-UHFFFAOYSA-N,c1ccc(cc1)N(c1csc(c1)c1cc(nc(c1)c1cccnc1)c1cccnc1)c1ccccc1,c1ccc(cc1)N(c1csc(c1)c1cc(nc(c1)c1cccnc1)c1cccnc1)c1ccccc1,304.9,0.097406236,-0.0958,-7.4545,4.04801,337.5556722175433,0.12554357,-0.5707,-7.4878,107.54073,-1.082,-8.035,4.17114,NaN,NaN,400,NaN,400,NaN,NaN
JIPNPPAFNNYFOK-UHFFFAOYSA-N,O=C1c2ccccc2N(C1=O)Br,O=C1c2ccccc2N(C1=O)Br,398.6,0.00028615,-1.0516,-9.0105,5.79718,452.4970744726411,0.000774034,-1.9591,-9.5067,191.26168,-2.237,-9.607,4.89642,NaN,NaN,263,NaN,263,NaN,NaN
AEWLJAVRGNINJY-UHFFFAOYSA-N,CCCCN(c1ccc(cc1)C(=C(C#N)C#N)C(=C(C#N)C#N)c1ccc(cc1)N(CCCC)CCCC)CCCC,CN(c1ccc(cc1)C(=C(C#N)C#N)C(=C(C#N)C#N)c1ccc(cc1)N(C)C)C,339.9,0.454975245,-1.1427,-7.9932,15.38957,332.6648736396664,0.014623805,-1.2765,-8.4534,168.41423,-1.514,-8.616,10.05755,NaN,NaN,480.0,NaN,469.0,NaN,NaN
QTZDQTKYFDGVDN-UHFFFAOYSA-N,C#Cc1ccc2c(c1)Cc1c2cccc1,C#Cc1ccc2c(c1)Cc1c2cccc1,277.2,0.617376629,0.3855,-8.0405,1.12367,317.25741659545463,0.625089914,-0.2125,-7.7415,18.74052,-0.731,-8.817,0.83772,NaN,NaN,287,NaN,287,NaN,NaN
ITACEBQXDZZTKD-UHFFFAOYSA-N,Cc1cc(=O)[nH]c(n1)C(=NNc1cccc(c1)[N+](=O)[O-])C(=O)c1ccccc1,Cc1cc(=O)[nH]c(n1)C(=NNc1cccc(c1)[N+](=O)[O-])C(=O)c1ccccc1,330.4,0.079441169,-0.9838,-8.5076,7.94515,423.58796858730324,0.002649262,-2.5194,-8.7701,192.85497,-1.784,-9.417,7.22257,NaN,NaN,384.0,19952.62314968879,260.0,7244.359600749898,NaN
CGVOIDFDFZHGIY-UHFFFAOYSA-N,Clc1cccc(c1c1nc2ccccc2c(=O)[nH]1)Cl,Clc1cccc(c1c1nc2ccccc2c(=O)[nH]1)Cl,263.0,0.141134941,0.5345,-8.7022,3.52202,310.1931408694112,0.15429949,-0.5829,-8.5199,85.69421,-1.125,-9.274,3.33781,NaN,NaN,587,NaN,587,NaN,NaN
DEGAKNSWVGKMLS-UHFFFAOYSA-N,OC(=O)CN(Cc1cc2c(cc1O)Oc1c(C32OC(=O)c2c3cccc2)cc(c(c1)O)CN(CC(=O)O)CC(=O)O)CC(=O)O,OC(=O)CN(Cc1cc2c(cc1O)Oc1c(C32OC(=O)c2c3cccc2)cc(c(c1)O)CN(CC(=O)O)CC(=O)O)CC(=O)O,255.2,0.00739637,0.323,-8.6221,5.63878,299.2618836724684,0.085029349,-0.7296,-8.496,82.01051,-0.721,-9.259,5.59227,NaN,NaN,NaN,NaN,NaN,NaN,NaN
HMNUZPXEMGNMTG-UHFFFAOYSA-N,COc1c(O)ccc2c1c(=O)c1c(o2)cccc1O,COc1c(O)ccc2c1c(=O)c1c(o2)cccc1O,319.2,0.146581727,-0.2679,-8.0729,2.35957,372.6606504523705,0.000223656,-1.2027,-8.6198,53.60842,-1.177,-8.972,1.97654,NaN,NaN,254,NaN,254,NaN,NaN
FFQVBAZDPZABGY-UHFFFAOYSA-N,CCCCCCCCCc1ccc(cc1)c1cc2c3c4c1c1ccc5c6c1c(c4ccc3c(=O)n(c2=O)CC(CCCC)CC)ccc6c(=O)n(c5=O)CC(CCCC)CC,Cc1ccc(cc1)c1cc2c3c4c1c1ccc5c6c1c(c4ccc3c(=O)n(c2=O)CC(C)CC)ccc6c(=O)n(c5=O)CC(C)CC,452.3,0.868151514,-1.9147,-7.8278,1.94838,486.0219459251417,0.714082478,-2.497,-7.9405,136.28098,-2.549,-8.978,2.02631,476.5323737767678,0.7228295349,536.0,36600,511.0,36600,NaN
CTKKGXDAWIAYSA-UHFFFAOYSA-N,O=C1C(=Cc2ccccc2)CCCC1=Cc1ccccc1,O=C1C(=Cc2ccccc2)C1=Cc1ccccc1,446.6,0.000209271,-1.5298,-7.9303,4.24471,421.8584498315878,0.046105373,-1.5992,-7.8847,59.21569,-1.579,-8.985,3.19977,NaN,NaN,142.1,NaN,142.1,NaN,NaN
CSAJGFLYFYSKRZ-UHFFFAOYSA-N,c1ccc(cc1)c1cccc(n1)c1nccc(c1)c1ccc(cc1)C=Cc1ccc(cc1)n1ncnc1,c1ccc(cc1)c1cccc(n1)c1nccc(c1)c1ccc(cc1)C=Cc1ccc(cc1)n1ncnc1,324.4,1.965573199,-0.4125,-7.9077,2.25900,326.876346969427,1.382795161,-0.5097,-7.7935,147.04124,-1.152,-9.109,3.33379,327.51530275052687,1.8121059674,416.0,NaN,334.0,NaN,Ethanol
IFDKFYKLGDDUDX-UHFFFAOYSA-N,Cc1cccc(c1)c1cccc(n1)c1ccccn1,Cc1cccc(c1)c1cccc(n1)c1ccccn1,266.5,0.033830878,0.3612,-8.354,0.67826,320.53825854576957,0.51034165,-0.3438,-7.9693,57.33474,-0.847,-9.171,0.8712,NaN,NaN,236,NaN,236,NaN,NaN
PPEOVQCTYIDZMS-UHFFFAOYSA-N,O=C1N(C)C(=O)C(=C1c1ccc2c(c1)cccc2)c1c[nH]c2c1cccc2,O=C1N(C)C(=O)C(=C1c1ccc2c(c1)cccc2)c1c[nH]c2c1cccc2,376.5,0.2207601,-0.6031,-7.7588,3.70170,457.33750795095415,0.251194827,-1.6586,-7.7756,124.65517,-1.462,-8.522,3.64245,NaN,NaN,440,NaN,440,NaN,NaN
BKWYFCWDRIHHMS-UHFFFAOYSA-N,O=Cc1cc2ccccc2c(c1O)CN1CCOCCOCCOCCOCC1,O=Cc1cc2ccccc2c(c1O)CN1CCOCCOCCOCCOCC1,330.8,0.076480178,-0.0709,-7.9573,4.76667,363.1640257923364,0.000503061,-0.8434,-8.0521,90.81983,-0.95,-8.742,4.75834,NaN,NaN,730.0,NaN,390.0,NaN,NaN
QOJJPBYLQFBVDX-UHFFFAOYSA-N,Clc1ccc(cc1)C=Cc1ccc(cc1)c1nnc(o1)c1c2ccccc2cc2c1cccc2,Clc1ccc(cc1)C=Cc1ccc(cc1)c1nnc(o1)c1c2ccccc2cc2c1cccc2,369.4,0.67207094,-0.5817,-7.642,3.33814,391.3642626436353,0.586049761,-1.0119,-7.4288,317.07096,-1.574,-8.652,4.42925,NaN,NaN,337,NaN,337,NaN,NaN
UOKYIPOGSCKRSW-UHFFFAOYSA-N,CCCCCCCCCCCCOc1ccc2c(c1)oc(n2)c1ccc(cc1)OC(=O)c1ccc2c(c1)nc(c(n2)c1ccc(c(c1)OCCCC)OCCCC)c1ccc(c(c1)OCCCC)OCCCC,COc1ccc2c(c1)oc(n2)c1ccc(cc1)OC(=O)c1ccc2c(c1)nc(c(n2)c1ccc(c(c1)OC)OC)c1ccc(c(c1)OC)OC,329.2,0.008911764,-0.6269,-7.8121,3.00501,377.4252615083825,0.840692829,-1.4277,-7.6278,73.12735,-1.564,-8.602,5.42728,NaN,NaN,397,NaN,397,NaN,NaN
WSNPGPXPJQPTNL-UHFFFAOYSA-N,COc1ccc(c2c1cccc2)c1nc2c(n1c1cc(C)cc(c1)C)c1ccccc1c1c2cccc1,COc1ccc(c2c1cccc2)c1nc2c(n1c1cc(C)cc(c1)C)c1ccccc1c1c2cccc1,298.2,0.180716139,0.6372,-7.3829,5.31186,367.2517725281507,0.299657136,-0.3687,-7.0482,75.73571,-0.545,-8.227,6.11536,NaN,NaN,232,NaN,232,NaN,NaN
CPIUKRRVJINGPX-UHFFFAOYSA-N,CSCC(=O)CC(c1ccc(cc1)[N+](=O)[O-])O,CSCC(=O)CC(c1ccc(cc1)[N+](=O)[O-])O,315.6,6.809e-06,-0.3793,-9.159,6.30040,421.28507783045757,2.9669e-05,-2.4258,-9.7212,41.19418,-1.306,-9.199,6.68751,NaN,NaN,NaN,NaN,NaN,NaN,NaN
SHILVMGEWLJZLP-UHFFFAOYSA-N,Clc1nc(Cl)nc(n1)Nc1c(N=Nc2ccccc2C(=O)O)c(nn1c1ccccc1)c1ccccc1,Clc1nc(Cl)nc(n1)Nc1c(N=Nc2ccccc2C(=O)O)c(nn1c1ccccc1)c1ccccc1,454.6,0.003051125,-0.8812,-8.3372,2.76440,536.9605820939959,0.000555425,-1.6093,-8.086,428.19703,-1.669,-9.081,2.4476,NaN,NaN,382,NaN,382,NaN,NaN
BHSCMOHRKVGAFT-UHFFFAOYSA-N,Nc1nc2c(N=Nc3ccccc3Cl)c(nn2c(c1N=Nc1nccs1)N)N,Nc1nc2c(N=Nc3ccccc3Cl)c(nn2c(c1N=Nc1nccs1)N)N,404.4,0.00028128,-0.9494,-7.5409,3.48402,537.4260875834576,0.00407054,-1.9433,-7.5752,133.02360,-1.816,-8.5,3.83217,NaN,NaN,489,NaN,489,NaN,NaN
BIIVYFLTOXDAOV-YVEFUNNKSA-N,CN1CC[C@@H]([C@@H](C1)O)c1c(O)cc(c2c1oc(cc2=O)c1ccccc1Cl)O,CN1CC[C@@H]([C@@H](C1)O)c1c(O)cc(c2c1oc(cc2=O)c1ccccc1Cl)O,292.1,0.149712913,-0.0164,-8.055,9.49891,361.575381759999,0.000966192,-1.109,-8.3355,136.77275,-1.249,-9.074,10.26982,NaN,NaN,NaN,NaN,NaN,NaN,NaN
PYNVUHPLVJLRGO-UHFFFAOYSA-N,N#Cc1cc2c(=O)c(=O)c3c4c2c(c1)c(=O)c(=O)c4cc(c3)C#N,N#Cc1cc2c(=O)c(=O)c3c4c2c(c1)c(=O)c(=O)c4cc(c3)C#N,474.2,2e-09,-2.6514,-10.2296,0.00095,398.4068072156287,0.253462938,-3.306,-9.8598,0.00980,-3.021,-10.734,0.0015,NaN,NaN,290,NaN,290,NaN,DMF
ZMPZNRMFGVAJMR-UHFFFAOYSA-N,COc1ccc(cc1)CCn1c(Nc2cc(Cl)cc(c2)Cl)nc2c1cc1oc(=O)c(c(c1c2)C)C(=O)N,COc1ccc(cc1)CCn1c(Nc2cc(Cl)cc(c2)Cl)nc2c1cc1oc(=O)c(c(c1c2)C)C(=O)N,307.8,0.609867808,-0.2198,-7.9552,6.01163,368.3428354293038,0.400204017,-1.4256,-8.3582,198.88430,-1.505,-8.888,6.31256,NaN,NaN,363,NaN,363,NaN,ethanol
HYWGBJPNMMTFRE-UHFFFAOYSA-N,CN(c1ccc(cc1)c1[nH]c(nc1c1ccc(cc1)N(C)C)c1ccc(cc1)C#Cc1ccc(cc1)[N+](=O)[O-])C,CN(c1ccc(cc1)c1[nH]c(nc1c1ccc(cc1)N(C)C)c1ccc(cc1)C#Cc1ccc(cc1)[N+](=O)[O-])C,346.2,2.176747742,-0.8266,-6.6807,10.66012,429.7545871941202,0.653770676,-2.4614,-6.8798,485.51033,-1.634,-7.814,11.04731,374.21282448762355,1.7171354087,420,NaN,420,NaN,CH 2 Cl 2
OLHBJHLZPIDTFH-UHFFFAOYSA-N,Oc1c(cc(cc1c1sc2c(n1)cccc2)c1sc2c(n1)cccc2)c1sc2c(n1)cccc2,Oc1c(cc(cc1c1sc2c(n1)cccc2)c1sc2c(n1)cccc2)c1sc2c(n1)cccc2,322.6,0.646703114,-0.4391,-7.971,3.05167,355.2555828237927,0.54576357,-1.2002,-8.0217,29.20109,-1.481,-8.849,2.11088,NaN,NaN,480.0,8510,318.0,10980,Hexane
AEXXEUGSEMMPLT-UHFFFAOYSA-N,Fc1c2oc3ccccc3[nH]c2c2c(c1F)c(=O)c1c(c2=O)c(O)ccc1O,Fc1c2oc3ccccc3[nH]c2c2c(c1F)c(=O)c1c(c2=O)c(O)ccc1O,437.2,0.654817618,-1.4812,-7.6579,4.24983,455.8242588437634,0.40940972,-2.4039,-8.2404,149.93479,-2.104,-8.5,4.59213,NaN,NaN,900.0,NaN,490.0,NaN,NaN
VVWXVQULJKAIHF-UHFFFAOYSA-N,O=c1cc(C)c2c(o1)cc(c(c2)N)N,O=c1cc(C)c2c(o1)cc(c(c2)N)N,298.9,0.322491094,0.4322,-7.6699,7.00477,351.92789782998483,0.350473846,-0.8979,-8.0851,67.76787,-0.803,-8.509,6.82842,NaN,NaN,389.0,NaN,326.0,NaN,Acetonitrile
ZEZWONBLDMKHHM-UHFFFAOYSA-N,Fc1ccc(cc1)NC1=C(Br)C(=O)OC1OCc1ccccc1,Fc1ccc(cc1)NC1=C(Br)C(=O)OC1OCc1ccccc1,242.6,0.323015207,0.7164,-8.4982,6.04383,322.8755166809991,0.001279939,-0.7315,-9.014,378.51677,-0.863,-9.016,6.48458,NaN,NaN,283,NaN,283,NaN,NaN
FNKFBRMMVOPMAS-UHFFFAOYSA-N,COc1ccc(cc1)N(c1ccc2c3c1cccc3c1c3c2cccc3c(cc1)C#CC=C(C(=O)O)C#N)c1ccc(cc1)OC,COc1ccc(cc1)N(c1ccc2c3c1cccc3c1c3c2cccc3c(cc1)C#CC=C(C(=O)O)C#N)c1ccc(cc1)OC,477.4,1.305921383,-1.4098,-6.8066,3.77099,500.13795242236245,1.090734169,-1.7949,-6.9629,294.03099,-1.97,-7.876,5.7945,520.2206730551733,1.0740237138,506,41000,506,41000,toluene
VFMPCSDNSNYVFN-UHFFFAOYSA-N,CCCCCCCCCCCCCCCCN(c1ccc(cc1)C#Cc1ccc(cc1)C(=O)O)CCCCCCCCCCCCCCCC,CN(c1ccc(cc1)C#Cc1ccc(cc1)C(=O)O)C,289.7,1.183186946,0.1344,-7.3588,5.37784,355.1538195517149,4.853e-06,-0.8088,-7.7379,216.81908,-0.873,-8.291,5.95191,301.0055669075976,0.000430139,382,NaN,382,NaN,dichloromethane
MGSRCZKZVOBKFT-UHFFFAOYSA-N,Cc1ccc(c(c1)O)C(C)C,Cc1ccc(c(c1)O)C(C)C,244.6,0.039264714,1.8605,-8.2154,1.49273,286.4037847204982,0.027721967,0.6741,-8.2789,25.91678,0.295,-8.867,1.33453,NaN,NaN,279,NaN,279,NaN,NaN
VTPTVIKBYZGZIV-UHFFFAOYSA-N,N#Cc1[nH]c2c(nc1C#N)nc(c2C(=O)C)C,N#Cc1[nH]c2c(nc1C#N)nc(c2C(=O)C)C,383.2,0.014135924,-1.663,-9.4795,7.73701,427.6791942238829,0.089260237,-2.2016,-8.9389,104.48576,-2.553,-10.055,7.1431,NaN,NaN,323,NaN,323,NaN,NaN
FDKRWNNOWPRXLU-UHFFFAOYSA-N,COc1ccc(cc1)n1ccc2c1nc(nc2c1ccccc1)c1ccc(cc1)c1ccccc1,COc1ccc(cc1)n1ccc2c1nc(nc2c1ccccc1)c1ccc(cc1)c1ccccc1,298.7,0.674603536,0.1364,-7.7378,2.70534,333.11176358276106,0.534957738,-0.3997,-7.5523,92.43593,-0.953,-8.515,2.45646,NaN,NaN,344.0,NaN,242.0,NaN,NaN
AWYKRVYQLPFUDT-UHFFFAOYSA-N,c1cnc2c(c1)cc(cc2)N=Cc1ccc(cc1)C=Nc1ccc2c(c1)cccn2,c1cnc2c(c1)cc(cc2)N=Cc1ccc(cc1)C=Nc1ccc2c(c1)cccn2,333.2,1.533698822,-0.7818,-8.204,0.00021,354.34180738926455,0.575486915,-0.9265,-7.9617,0.06411,-1.276,-9.055,0.01464,NaN,NaN,0,NaN,0,NaN,NaN
ZUCPMCVGULEJDQ-UHFFFAOYSA-N,c1ccc(cc1)c1c2ccccc2c(c2c1cccc2)c1cccc(n1)c1c2ccccc2c(c2c1cccc2)c1ccccc1,c1ccc(cc1)c1c2ccccc2c(c2c1cccc2)c1cccc(n1)c1c2ccccc2c(c2c1cccc2)c1ccccc1,367.8,0.516009126,-0.1265,-7.315,1.27522,391.2407649274335,0.497015853,-0.6434,-7.0728,19.47388,-1.116,-8.22,1.71999,NaN,NaN,433.0,NaN,396.0,NaN,dichloromethane
OZBAVEKZGSOMOJ-MIUGBVLSSA-N,OC[C@H]1O[C@@H](Oc2cc3occ(c(=O)c3cc2OC)c2ccc(cc2)O)[C@@H]([C@H]([C@@H]1O)O)O,OC[C@H]1O[C@@H](Oc2cc3occ(c(=O)c3cc2OC)c2ccc(cc2)O)[C@@H]([C@H]([C@@H]1O)O)O,286.7,4.8945e-05,0.1785,-8.1257,2.28074,366.6002318317672,0.000455692,-1.0244,-8.2831,127.77265,-1.022,-8.844,3.00041,NaN,NaN,NaN,NaN,NaN,NaN,NaN
AHHALGKKKGKJPU-UHFFFAOYSA-N,CC(c1cc2ccsc2c(=O)o1)O,CC(c1cc2ccsc2c(=O)o1)O,274.2,0.19029211,0.1228,-8.6163,4.42560,357.3031654337281,0.14336297,-1.2662,-8.6353,93.04605,-1.238,-8.796,3.34161,NaN,NaN,NaN,NaN,NaN,NaN,NaN
SHNUBALDGXWUJI-UHFFFAOYSA-N,OCc1ccccn1,OCc1ccccn1,230.4,0.007644641,0.9741,-9.3591,3.79361,284.89016177735215,0.003327311,0.0593,-9.0541,36.58811,-0.462,-10.0,3.8114,NaN,NaN,274.2,NaN,274.0,NaN,NaN
IRVBQWBRJNWHGL-UHFFFAOYSA-N,Cc1ccc(cc1)Cn1c(C=Cc2ccccc2)nc(c1c1ccco1)c1ccco1,Cc1ccc(cc1)Cn1c(C=Cc2ccccc2)nc(c1c1ccco1)c1ccco1,313.7,1.29347193,0.2795,-7.1137,3.20462,411.3609767933101,0.464269743,-0.427,-6.7393,144.95769,-0.581,-8.154,4.68585,336.2647962063395,0.9619538139,350,NaN,350,NaN,NaN
MRGZUAUMTMLMTE-UHFFFAOYSA-N,N#Cc1cccc2c1[nH]nc2Br,N#Cc1cccc2c1[nH]nc2Br,281.1,0.212769457,-0.3803,-9.0016,3.04165,316.44767331675257,0.138887036,-1.1169,-8.9627,193.99283,-1.43,-9.43,3.10018,NaN,NaN,398,NaN,398,NaN,NaN
PHCVZZIULXBVAG-UHFFFAOYSA-N,O=c1[nH]c(cn2c1cc(n2)c1ccccc1)c1ccccc1,O=c1[nH]c(cn2c1cc(n2)c1ccccc1)c1ccccc1,287.0,0.91771526,0.3594,-7.8645,4.21031,381.25522264915026,0.476424065,-0.9076,-7.8071,54.29251,-1.024,-8.617,4.45823,298.060420244824,0.7959929233,325,NaN,325,NaN,THF
JBWWPNXYEQBMQS-UHFFFAOYSA-N,C=CCN1c2ccc(cc2C(C21CCc1c(O2)ccc(c1)[N+](=O)[O-])(C)C)C(F)(F)F,C=CCN1c2ccc(cc2C(C21CCc1c(O2)ccc(c1)[N+](=O)[O-])(C)C)C(F)(F)F,312.8,6.7938e-05,-0.2762,-8.3327,5.14007,423.73273549386073,1.0219e-05,-2.525,-8.6149,194.88305,-1.154,-9.211,4.93403,NaN,NaN,206,NaN,206,NaN,CH 3 CN
UQVFZEYHQJJGPD-UHFFFAOYSA-N,c1ccc(cc1)c1c2ccccc2c(c2c1cccc2)c1ccc(cc1)n1c2ccccc2c2c1cccc2,c1ccc(cc1)c1c2ccccc2c(c2c1cccc2)c1ccc(cc1)n1c2ccccc2c2c1cccc2,369.9,0.329794804,-0.2044,-7.4546,2.13227,387.5717361847567,0.361784743,-0.6653,-7.1373,33.73303,-1.14,-8.21,1.47394,NaN,NaN,NaN,NaN,NaN,NaN,NaN
QSRXUCVPEHOYAH-UHFFFAOYSA-N,N#CC(=C1C(=CC=C2N(C)c3c(C2(C)C)cccc3)c2c(C1=Cc1ccc(s1)c1cc3c(s1)cccc3)cccc2)C#N,N#CC(=C1C(=CC=C2N(C)c3c(C2(C)C)cccc3)c2c(C1=Cc1ccc(s1)c1cc3c(s1)cccc3)cccc2)C#N,439.3,0.20644597,-1.2109,-7.3926,6.95276,444.7065939939156,0.092738464,-1.3001,-7.4645,292.57371,-1.568,-8.074,5.61406,NaN,NaN,485,NaN,485,NaN,NaN
VZMLEMYJUIIHNF-UHFFFAOYSA-N,CCC(=C(c1ccc(cc1)OC(=O)CC)CC)c1ccc(cc1)OC(=O)CC,CCC(=C(c1ccc(cc1)OC(=O)CC)CC)c1ccc(cc1)OC(=O)CC,258.9,0.319696921,1.0909,-7.9518,0.16790,292.208810760084,0.003774737,0.2517,-7.6539,118.18156,0.108,-9.052,0.32072,NaN,NaN,NaN,NaN,NaN,NaN,NaN
ZDOQTLOLSWBFBR-UHFFFAOYSA-N,N#Cc1c(N)nc(c(c1c1c2ccccc2cc2c1cccc2)C#N)N,N#Cc1c(N)nc(c(c1c1c2ccccc2cc2c1cccc2)C#N)N,360.8,0.167578551,-0.2928,-7.6133,3.79708,377.4252615083825,0.233428767,-0.8539,-7.3941,85.69458,-1.247,-8.472,3.80891,NaN,NaN,391.0,NaN,386.0,NaN,THF
MEWAZRJLRMEJDV-LDLFXXLYSA-N,COc1ccc(cc1)S(=O)(=O)N(C[C@H]([C@@H](n1nnc(c1)COC(=O)N[C@H]1[C@H](O)Cc2c1cccc2)Cc1ccccc1)O)CC(C)C,COc1ccc(cc1)S(=O)(=O)N(C[C@H]([C@@H](n1nnc(c1)COC(=O)N[C@H]1[C@H](O)Cc2c1cccc2)Cc1ccccc1)O)CC(C)C,244.3,0.02341742,0.742,-8.979,10.16004,279.2436901024857,0.113578759,-0.5157,-8.5993,152.11486,-0.517,-9.325,5.78702,NaN,NaN,NaN,NaN,NaN,NaN,NaN
BYGHNCUHGAKAMS-UHFFFAOYSA-N,COc1nc(OC)nc(n1)Nc1ccc2c3c1cccc3c1c3c2cccc3ccc1,COc1nc(OC)nc(n1)Nc1ccc2c3c1cccc3c1c3c2cccc3ccc1,406.0,0.74388453,-0.5819,-7.0405,1.70654,420.42793626823897,0.701133866,-1.0245,-6.9943,238.94604,-1.518,-8.112,2.1702,NaN,NaN,444.0,NaN,441.0,NaN,Acetonitrile
DHNIIIJHPCRMHC-UHFFFAOYSA-N,CCCCOc1ccc(cc1)C(=O)Oc1ccc(cc1)c1ccc(cc1)O,COc1ccc(cc1)C(=O)Oc1ccc(cc1)c1ccc(cc1)O,254.8,0.628951245,0.8164,-8.0037,2.22312,300.56775371031193,0.043108417,-0.6761,-8.0102,8.50595,-0.585,-8.806,3.50882,NaN,NaN,269.0,NaN,232.0,NaN,NaN
IFJGOOGBXPUENL-NDEPHWFRSA-N,CCN(c1ccc2c(c1)oc(=O)cc2COC(=O)[C@@H](NC(=O)OCC1c2ccccc2c2c1cccc2)CC(=O)O)CC,CCN(c1ccc2c(c1)oc(=O)cc2COC(=O)[C@@H](NC(=O)OCC1c2ccccc2c2c1cccc2)CC(=O)O)CC,296.8,0.502652557,0.1718,-7.7381,6.98153,357.61234036776364,0.407750352,-0.8592,-7.9346,228.49184,-0.897,-8.602,5.12132,NaN,NaN,379,NaN,379,NaN,NaN
QOCSDWBKZGXGPO-UHFFFAOYSA-N,CCC(c1ccc(cc1)C#N)C(=O)Cc1ccccc1,CCC(c1ccc(cc1)C#N)C(=O)Cc1ccccc1,268.0,0.00688085,0.1584,-9.1415,4.32851,332.9328636023192,0.002513711,-0.6171,-9.1316,71.54250,-0.919,-9.765,4.03067,NaN,NaN,NaN,NaN,NaN,NaN,NaN
NSCBRSHDANBZSW-UHFFFAOYSA-N,CCn1c2ccc(cc2c2c1ccc(c2)c1cccs1)c1cccs1,CCn1c2ccc(cc2c2c1ccc(c2)c1cccs1)c1cccs1,306.3,0.023252232,0.6619,-7.3576,2.08394,334.5499147477163,0.020906915,-0.0695,-7.5224,121.54275,-0.581,-8.214,2.8017,NaN,NaN,350.0,NaN,315.0,NaN,NaN
XVMVHWDCRFNPQR-UHFFFAOYSA-N,O=C1c2cccc(c2C(=O)c2c1c(ccc2)[N+](=O)[O-])[N+](=O)[O-],O=C1c2cccc(c2C(=O)c2c1c(ccc2)[N+](=O)[O-])[N+](=O)[O-],345.0,0.005335623,-1.7845,-10.322,0.47423,434.72720338535646,0.019884175,-2.8514,-10.2412,6.52207,-2.203,-11.056,1.84703,NaN,NaN,325,NaN,325,NaN,NaN
IQYZWOBXXCLBLP-UHFFFAOYSA-N,COc1cc(ccc1OC)c1sc(c2c1cc1ccccc1c2)c1cccs1,COc1cc(ccc1OC)c1sc(c2c1cc1ccccc1c2)c1cccs1,473.4,0.444122782,-0.6589,-6.7158,2.11920,588.4394798552618,0.289660896,-1.3002,-6.47,156.74378,-1.533,-7.855,2.7479,NaN,NaN,582,NaN,582,NaN,CH 2 Cl
LAGOHRQMKGYFOP-UHFFFAOYSA-N,Cc1c(sc2c1c(C)c(s2)c1nnc(o1)c1ccco1)c1nnc(o1)c1ccco1,Cc1c(sc2c1c(C)c(s2)c1nnc(o1)c1ccco1)c1nnc(o1)c1ccco1,306.2,2.473858687,-0.0125,-7.9109,1.93851,434.87968574361156,1.361904021,-1.1992,-7.4534,133.95657,-1.597,-8.558,1.99715,314.88049018219544,1.9877198702,359,NaN,359,NaN,Ethanol
HXITXNWTGFUOAU-UHFFFAOYSA-N,OB(c1ccccc1)O,OB(c1ccccc1)O,235.1,0.006959587,1.307,-9.0735,2.46108,268.42216584867646,0.014510704,0.0811,-9.0623,59.90940,-0.45,-9.554,2.19428,NaN,NaN,377.0,NaN,231.01,NaN,NaN