inchikey,smi_pre,smi_post,lambda_sTDA (nm),f1_sTDA,lumo_dft,homo_dft,dmom_dft (D),lambda_z (nm),f1_z,lumo_z,homo_z,dmom_z (D),lumo_mopac,homo_mopac,dmom_mopac (D),lambda_tddft (nm),f1_tddft,lambda_exp_max (nm),epsilon_exp_max ,lambda_exp_min (nm),epsilon_exp_min ,solvent
DZZWHBIBMUVIIW-DTORHVGOSA-N,C[C@@H]1N[C@H](C)CN(C1)c1c(F)c(N)c2c(c1F)n(cc(c2=O)C(=O)O)C1CC1,C[C@@H]1N[C@H](C)CN(C1)c1c(F)c(N)c2c(c1F)n(cc(c2=O)C(=O)O)C1CC1,316.1,0.1536778,0.2211,-7.8266,8.75604,364.44502764698314,0.113863745,-1.3322,-8.5611,234.14831,-1.038,-8.745,9.01055,NaN,NaN,NaN,NaN,NaN,NaN,NaN
USQPMEJHBDRXND-UHFFFAOYSA-N,[O-][N+](=O)c1ccc(cc1)N=NC(=NNc1ccccc1)c1ccccc1,[O-][N+](=O)c1ccc(cc1)N=NC(=NNc1ccccc1)c1ccccc1,519.9,0.000846037,-1.5958,-7.7743,4.63641,602.4499436613395,0.001679474,-2.6995,-7.9619,223.20370,-1.983,-8.644,5.32225,NaN,NaN,413,NaN,413,NaN,NaN
TWGOIMFFHBATLW-UHFFFAOYSA-N,Oc1cccc(c1c1nc2c(s1)cccc2)O,Oc1cccc(c1c1nc2c(s1)cccc2)O,288.0,0.474962503,0.1821,-8.1303,2.86648,347.87934457212026,0.574167078,-0.8437,-7.9597,43.90174,-1.054,-8.84,2.47219,NaN,NaN,335.0,NaN,334.0,NaN,Water
XUKUURHRXDUEBC-KAYWLYCHSA-N,O[C@@H](C[C@H](CC(=O)O)O)CCn1c(C(C)C)c(c(c1c1ccc(cc1)F)c1ccccc1)C(=O)Nc1ccccc1,O[C@@H](C[C@H](CC(=O)O)O)CCn1c(C(C)C)c(c(c1c1ccc(cc1)F)c1ccccc1)C(=O)Nc1ccccc1,256.2,0.245523235,0.5501,-8.2399,8.64287,334.27931627259005,0.194311949,-0.4045,-7.8406,285.96441,-0.563,-8.491,5.71484,NaN,NaN,NaN,NaN,NaN,NaN,NaN
MHLOBLTYDMOFEB-UHFFFAOYSA-N,[O-][N+](=O)c1cc2C(=CC=CC=CC=C3C=C(OC(=C3)c3ccccc3)c3ccccc3)c3c(c2c(c1)[N+](=O)[O-])c(cc(c3)[N+](=O)[O-])[N+](=O)[O-],[O-][N+](=O)c1cc2C(=CC=CC=CC=C3C=C(OC(=C3)c3ccccc3)c3ccccc3)c3c(c2c(c1)[N+](=O)[O-])c(cc(c3)[N+](=O)[O-])[N+](=O)[O-],497.1,3.158382721,-1.9361,-7.1692,19.78970,691.8761071735695,0.484808207,-3.5097,-7.3404,851.66940,-2.823,-8.351,16.5774,573.1782765902614,2.4386533253,748,NaN,748,NaN,Toluene
RHCYRIOHRCDGGI-UHFFFAOYSA-N,Cc1ccc(cc1)Cn1c(nc(c1c1ccco1)c1ccco1)c1ccco1,Cc1ccc(cc1)Cn1c(nc(c1c1ccco1)c1ccco1)c1ccco1,278.5,0.798229301,1.021,-7.1577,2.89386,418.4414391005861,0.411484363,-0.4868,-6.7574,94.07486,-0.557,-8.197,4.72217,NaN,NaN,312,NaN,312,NaN,NaN
VPKOHXJFXBZYJJ-UHFFFAOYSA-N,CCCCN(c1ccc2c(c1)oc1c2C(=O)C(c2c1cccc2)(CCCC)CCCC)CCCC,CN(c1ccc2c(c1)oc1c2C(=O)C(c2c1cccc2)(C)C)C,324.7,0.611934149,0.1661,-7.0822,3.45031,397.64014883099316,0.451998617,-0.9557,-7.4175,9.15975,-0.949,-7.964,3.18328,NaN,NaN,538.0,NaN,379.0,NaN,Acetonitrile
XFZJEEAOWLFHDH-UKWJTHFESA-N,Oc1cc(O)c2c(c1)O[C@@H]([C@@H]([C@H]2c1c(O)cc(c2c1O[C@@H]([C@H](C2)O)c1ccc(c(c1)O)O)O)O)c1ccc(c(c1)O)O,Oc1cc(O)c2c(c1)O[C@@H]([C@@H]([C@H]2c1c(O)cc(c2c1O[C@@H]([C@H](C2)O)c1ccc(c(c1)O)O)O)O)c1ccc(c(c1)O)O,251.1,0.030028775,1.3411,-7.8231,5.64449,304.6294801118026,0.007454495,0.1641,-8.1475,48.28213,-0.503,-8.73,4.37089,NaN,NaN,NaN,NaN,NaN,NaN,NaN
AYMYWHCQALZEGT-UHFFFAOYSA-N,Oc1ccc(c(c1)O)C(=O)C=Cc1ccc(c(c1)O)O,Oc1ccc(c(c1)O)C(=O)C=Cc1ccc(c(c1)O)O,307.5,1.132502685,-0.3609,-8.1053,4.11972,374.574617539286,0.000824908,-1.1088,-8.5054,14.25913,-1.029,-9.107,3.02895,NaN,NaN,NaN,NaN,NaN,NaN,NaN
JVMYMQBUSUOTOB-UHFFFAOYSA-N,COc1ccc(cc1)c1ccnc2c1ccc(n2)NC(=O)C,COc1ccc(cc1)c1ccnc2c1ccc(n2)NC(=O)C,281.3,0.002498995,-0.0618,-8.6579,7.22709,326.70408011990423,0.304727513,-0.8816,-8.6298,88.95794,-1.108,-9.285,7.38184,NaN,NaN,327.0,NaN,321.0,NaN,water
SXMCIQXYGMZFMH-UHFFFAOYSA-N,O=C1OC(=O)c2c3c1ccc1c3c(cc2)c2c3c1cccc3ccc2,O=C1OC(=O)c2c3c1ccc1c3c(cc2)c2c3c1cccc3ccc2,413.6,0.738137635,-1.5918,-7.809,9.24384,443.2756467840674,0.818262035,-2.0558,-7.787,202.39745,-2.312,-8.879,9.65154,NaN,NaN,495.0,NaN,424.0,NaN,NaN
TZMSYXZUNZXBOL-UHFFFAOYSA-N,c1ccc2c(c1)Oc1c(N2)cccc1,c1ccc2c(c1)Oc1c(N2)cccc1,310.5,0.0143481,1.5033,-7.1387,1.82076,302.84366977406853,0.074273704,0.454,-7.7126,11.82155,-0.281,-7.923,1.85449,NaN,NaN,556,NaN,556,NaN,NaN
ZKZXNDJNWUTGDK-UHFFFAOYSA-N,Brc1ccc(cc1)C=CCNCCNS(=O)(=O)c1cccc2c1ccnc2,Brc1ccc(cc1)C=CCNCCNS(=O)(=O)c1cccc2c1ccnc2,291.2,0.083459171,-0.1337,-8.5951,6.00078,327.4807142247852,0.074904383,-1.1517,-8.5697,292.05140,-1.378,-9.125,8.77518,NaN,NaN,463.08,NaN,382.73,NaN,NaN
VMDBJBQFGBVZKR-UHFFFAOYSA-N,O=Cc1c(O)c2ccccc2n(c1=O)C,O=Cc1c(O)c2ccccc2n(c1=O)C,305.0,0.155106906,-0.4748,-8.6934,4.91975,344.3049108733787,0.24951983,-1.5178,-8.9498,95.87466,-1.258,-9.197,4.82314,NaN,NaN,398.0,NaN,369.0,NaN,MeOH
BMIJUARACLJZMP-UHFFFAOYSA-N,Brc1cc(Nc2ccccc2)c2c(c1N)C(=O)c1c(C2=O)cccc1,Brc1cc(Nc2ccccc2)c2c(c1N)C(=O)c1c(C2=O)cccc1,449.8,0.448933109,-1.0921,-7.3012,0.39482,465.9308470706639,0.276074078,-1.9015,-7.8655,319.41435,-1.717,-8.089,1.53414,NaN,NaN,612.0,NaN,580.0,NaN,NaN
FNBQMPSPKIZBGI-UHFFFAOYSA-N,N#CC(=Cc1sc(c(c1)CO[Si](C(C)(C)C)(c1ccccc1)c1ccccc1)C=C1C=C(OC(=C1)c1ccccc1)c1ccccc1)C(=O)O,N#CC(=Cc1sc(c(c1)CO[Si](C(C)(C)C)(c1ccccc1)c1ccccc1)C=C1C=C(OC(=C1)c1ccccc1)c1ccccc1)C(=O)O,388.4,1.579052094,-0.883,-7.3091,8.98201,489.4757141946453,0.770039638,-1.6652,-7.3206,330.85152,-1.63,-8.433,7.67289,NaN,NaN,559,NaN,559,NaN,NaN
JQYBWFVSNKZHDI-UHFFFAOYSA-N,CCCCCCn1c2ccc(cc2c2c1cccc2)C=Cc1ccc(cc1)SC,Cn1c2ccc(cc2c2c1cccc2)C=Cc1ccc(cc1)SC,313.6,0.85940169,0.273,-7.338,3.77139,331.86348609610184,0.039425557,-0.005,-7.4557,190.52883,-0.569,-8.101,3.32797,328.25234441566136,1.0320519778,337.0,NaN,331.0,NaN,Cyclohexane
DNYMKHBLBWVLAV-UHFFFAOYSA-N,Clc1cccc(c1)N=Nc1c([nH]c2n1nc(c2N=Nc1ccccc1)C)c1ccccc1,Clc1cccc(c1)N=Nc1c([nH]c2n1nc(c2N=Nc1ccccc1)C)c1ccccc1,445.2,0.001964991,-0.9521,-7.5066,2.66814,530.0735288820165,0.000732018,-1.6005,-7.5481,257.87412,-1.728,-8.576,2.56723,NaN,NaN,533.0,NaN,350.0,NaN,dioxane
WQKBSLUTVLRIKH-UHFFFAOYSA-N,N#CC(=C(c1ccc(cc1)n1ccc2c1cccc2)C#N)c1ccc(cc1)n1ccc2c1cccc2,N#CC(=C(c1ccc(cc1)n1ccc2c1cccc2)C#N)c1ccc(cc1)n1ccc2c1cccc2,322.3,0.271806613,-1.1663,-8.0173,5.43865,364.55218584388024,0.146171275,-1.2229,-7.9079,155.79136,-1.738,-8.63,4.14853,NaN,NaN,572.0,NaN,359.0,NaN,THF
HEWJQQIAOPBMNR-UHFFFAOYSA-N,CCN(c1ccc2c(c1)oc(=O)c1c2OC(=C(C1c1ccc(cc1)[N+](=O)[O-])C#N)N)CC,CCN(c1ccc2c(c1)oc(=O)c1c2OC(=C(C1c1ccc(cc1)[N+](=O)[O-])C#N)N)CC,315.6,5.635e-05,-0.3597,-7.9645,14.20931,422.86561529844363,5.3039e-05,-2.2939,-8.1298,307.14707,-1.17,-8.76,16.00452,NaN,NaN,367,NaN,367,NaN,NaN
XQVCPWRMDCECKS-JWYNLTDQSA-N,O=C(C(c1ccc(cc1)O)NC1=CC(=O)C(=CC1=O)C)NC1C(=O)N2[C@@H]1SC([C@@H]2C(=O)O)(C)C,O=C(C(c1ccc(cc1)O)NC1=CC(=O)C(=CC1=O)C)NC1C(=O)N2[C@@H]1SC([C@@H]2C(=O)O)(C)C,405.7,0.028064623,-1.191,-8.7118,5.39777,426.20900105020166,0.00489978,-2.2001,-8.9742,114.66187,-1.59,-9.38,5.19208,NaN,NaN,277,NaN,277,NaN,NaN
YWDYAHVLHYRSBZ-UHFFFAOYSA-N,CCN(c1ccc2c(c1)oc(=O)c(c2)c1ccccn1)CC,CCN(c1ccc2c(c1)oc(=O)c(c2)c1ccccn1)CC,326.2,1.098868667,0.003,-7.3839,5.42583,398.0231088459186,0.690066801,-1.05,-7.5865,127.53399,-0.86,-8.263,6.4309,345.5234874710572,0.931939041,414.0,NaN,236.0,NaN,NaN
DZUCTOKZOWOFIF-UHFFFAOYSA-N,CCCCc1nc(c2n1ccc(c2)c1nnc(o1)COc1ccccc1C)Cl,Cc1nc(c2n1ccc(c2)c1nnc(o1)COc1ccccc1C)Cl,357.2,0.20135293,-0.2072,-7.7424,1.28515,423.15426076963706,0.321956331,-1.0965,-7.4701,114.34553,-1.515,-8.734,1.5289,NaN,NaN,377,NaN,377,NaN,CH3CN
KZBXZWONPUDVET-UHFFFAOYSA-N,CCCCCCCCCCCCC(=NO)c1ccccn1,C(=NO)c1ccccn1,254.1,0.004846205,0.4717,-8.8937,2.19394,299.6959110599557,0.003829031,-0.7363,-9.076,60.27932,-0.835,-9.788,2.12541,NaN,NaN,271.0,NaN,206.0,NaN,NaN
YIDUYBKCWTVUPI-UHFFFAOYSA-N,CCCCN(c1ccc2c3c1cccc3c1c2nc2c(n1)cc(c(c2)C(=O)O)C(=O)O)c1ccccc1,CN(c1ccc2c3c1cccc3c1c2nc2c(n1)cc(c(c2)C(=O)O)C(=O)O)c1ccccc1,360.5,0.494733256,-0.8682,-7.7472,5.57894,377.3104029382339,0.00434375,-1.3462,-7.9623,428.27723,-1.892,-8.634,6.06336,NaN,NaN,435.0,NaN,428.0,NaN,NaN
RGXMGUUXNMIESD-UHFFFAOYSA-N,C=CCC1CCc2c(N1S(=O)(=O)c1ccccc1[N+](=O)[O-])cccc2,C=CCC1CCc2c(N1S(=O)(=O)c1ccccc1[N+](=O)[O-])cccc2,308.3,0.003396908,-0.0012,-8.7782,7.00606,436.71785278444406,0.003671553,-2.5329,-8.7627,201.55910,-1.33,-8.819,7.22256,NaN,NaN,NaN,NaN,NaN,NaN,NaN
DYWRYSZZOYNVAM-UHFFFAOYSA-N,CC1(C)c2cc(ccc2N(c2c1cccc2)c1ccccc1)c1ccc(cc1)c1nc(c(n1c1ccccc1)c1ccccc1)c1ccccc1,CC1(C)c2cc(ccc2N(c2c1cccc2)c1ccccc1)c1ccc(cc1)c1nc(c(n1c1ccccc1)c1ccccc1)c1ccccc1,303.2,1.375976032,0.6577,-7.0347,3.29163,352.728871708403,0.49815123,-0.0888,-7.1095,74.95545,-0.499,-7.799,5.5264,310.1543289787103,1.401022523,349,NaN,349,NaN,THF
WDCYWAQPCXBPJA-UHFFFAOYSA-N,[O-][N+](=O)c1cccc(c1)[N+](=O)[O-],[O-][N+](=O)c1cccc(c1)[N+](=O)[O-],315.9,5.804e-06,-1.1893,-10.9024,4.23322,316.69016195530946,0.049009551,-3.121,-10.9326,54.20971,-2.127,-11.519,4.58267,NaN,NaN,NaN,NaN,NaN,NaN,NaN
ORMYACLDZGAWNY-UHFFFAOYSA-N,Oc1ccc2c(c1)c(O)cc(=O)o2,Oc1ccc2c(c1)c(O)cc(=O)o2,291.2,0.148218689,0.1086,-8.4054,5.45493,332.3082240833655,0.212230689,-1.2061,-8.8017,29.21391,-1.292,-9.216,4.86002,NaN,NaN,287.0,NaN,221.0,NaN,NaN
MDSMTDGUBLDKLV-UHFFFAOYSA-N,N#Cc1c(C#N)nc(n1C)c1ccc(cc1)c1ccccc1,N#Cc1c(C#N)nc(n1C)c1ccc(cc1)c1ccccc1,268.3,0.925287999,-0.2709,-8.7848,9.41935,322.53953799558707,0.441906873,-0.9796,-8.4628,190.77127,-1.28,-9.611,9.23836,273.12903249160564,1.0841565615,286,NaN,286,NaN,NaN
OJRFUZPONYSMKF-UHFFFAOYSA-N,CCOC(=O)c1cc(=O)c2c(o1)cccc2OC,CCOC(=O)c1cc(=O)c2c(o1)cccc2OC,317.1,0.002110243,-0.2943,-8.9027,5.27566,392.85233968790766,0.000154709,-1.6367,-9.164,50.66494,-0.945,-9.276,4.59658,NaN,NaN,327.0,NaN,238.0,NaN,NaN
LFMZIXWIKSDZPY-UHFFFAOYSA-N,Clc1ccc2c(c1)c1cc(ccc1[nH]2)[N+](=O)[O-],Clc1ccc2c(c1)c1cc(ccc1[nH]2)[N+](=O)[O-],312.9,1.8188e-05,-0.256,-8.4683,6.87500,421.8584498315878,6.321e-06,-2.4402,-8.8292,107.18542,-1.365,-9.245,7.20533,NaN,NaN,339.0,NaN,326.0,NaN,NaN
NNRZSZJOQKAGTO-UHFFFAOYSA-N,O=C1NOCC1NCc1c(cnc(c1O)C)COP(=O)(O)O,O=C1NOCC1NCc1c(cnc(c1O)C)COP(=O)(O)O,251.0,0.123558755,1.0239,-8.6253,3.47241,294.84946113080537,0.115174205,-0.0028,-8.4766,195.70104,-0.587,-9.196,2.58273,NaN,NaN,NaN,NaN,NaN,NaN,NaN
LNLUPUOCQSSFHB-UHFFFAOYSA-N,c1ccc(cc1)C#Cc1ccc(cc1)N=Nc1ccc(cc1)C#Cc1ccccc1,c1ccc(cc1)C#Cc1ccc(cc1)N=Nc1ccc(cc1)C#Cc1ccccc1,447.9,0.00210072,-1.0049,-7.7975,0.01739,527.8169365921824,0.019136523,-1.3242,-7.5515,3.34468,-1.535,-8.809,0.12405,NaN,NaN,385,NaN,385,NaN,NaN
LQCLGWZANQESKU-UHFFFAOYSA-N,CCOC(=O)c1cc2ccc(c(c2oc1=O)CN(CC(=O)O)CC(=O)O)OCCN(CC(=O)O)CC(=O)O,CCOC(=O)c1cc2ccc(c(c2oc1=O)CN(CC(=O)O)CC(=O)O)OCCN(CC(=O)O)CC(=O)O,294.0,0.594181796,-0.5014,-8.6563,8.43184,350.534912087938,0.483420598,-1.5179,-8.7176,152.43405,-1.698,-9.716,4.27928,NaN,NaN,365,NaN,365,NaN,NaN
BNIJJJRESBVRNB-UHFFFAOYSA-N,CCC(Nc1cc(ccc1N1C(=O)CCC1(CO)CO)C(=O)O)CC,CCC(Nc1cc(ccc1N1C(=O)CCC1(CO)CO)C(=O)O)CC,278.5,0.091087743,0.2346,-8.6097,1.61624,315.4011661294929,0.092423414,-0.8395,-8.638,140.68742,-0.913,-8.852,1.6855,NaN,NaN,528.0,37300,469.89,37300,NaN
SMUQFGGVLNAIOZ-UHFFFAOYSA-N,Cc1ccc2c(n1)cccc2,Cc1ccc2c(n1)cccc2,274.7,0.0375004,0.4404,-8.6085,1.80360,312.8543992064185,0.109536407,-0.3548,-8.3711,7.49346,-0.71,-9.274,1.98952,NaN,NaN,528,NaN,528,NaN,NaN
RJGJDSGHWMBVPI-UHFFFAOYSA-N,Cc1ccc(cc1)NN=C(C(=O)c1ccccc1)c1nc(C)cc(=O)[nH]1,Cc1ccc(cc1)NN=C(C(=O)c1ccccc1)c1nc(C)cc(=O)[nH]1,334.7,0.963318874,-0.6755,-8.0234,3.72812,423.58796858730324,0.042367463,-1.5896,-8.0941,52.55256,-1.22,-8.905,3.55585,366.19958356983625,0.7029495732,396.0,18620.871366628657,299.0,5370.317963702527,NaN
QSNHMSRICSDACJ-UHFFFAOYSA-N,CCN(c1cccc(c1)[N+](=O)[O-])CC,CCN(c1cccc(c1)[N+](=O)[O-])CC,336.9,0.057846984,-0.1872,-7.9284,6.13223,437.4883500547059,0.054521844,-2.379,-8.6165,145.64712,-0.973,-8.657,6.66314,NaN,NaN,413.6,NaN,409.2,NaN,NaN
AFZDCWLTVIIPTF-UHFFFAOYSA-N,Clc1ccccc1N=Nc1nc2c(s1)cccc2,Clc1ccccc1N=Nc1nc2c(s1)cccc2,498.3,0.011022444,-1.0924,-8.5859,0.85144,517.2473859220012,0.01696655,-1.3321,-8.3431,68.46611,-1.398,-9.101,0.50864,NaN,NaN,348.0,NaN,332.0,NaN,Methanol
DQGQOVGODVSOKA-UHFFFAOYSA-N,CCOC(=O)C1=C(NC(=O)C1=NNc1ccc(cc1)C#N)c1ccccc1,CCOC(=O)C1=C(NC(=O)C1=NNc1ccc(cc1)C#N)c1ccccc1,350.4,1.323753998,-0.7574,-7.7385,13.04818,404.64816711979,0.706660504,-1.657,-7.9343,112.67133,-1.476,-8.557,11.19883,382.87997347056836,0.9193560937,443,NaN,443,NaN,NaN
VJBRZYYLBYTNGP-UHFFFAOYSA-N,CCOc1ccc(cc1)C=Cc1nc2cc(OCCC(C)C)c(cc2nc1C=Cc1ccc(cc1)OCC)OCCC(C)C,CCOc1ccc(cc1)C=Cc1nc2cc(OCCC(C)C)c(cc2nc1C=Cc1ccc(cc1)OCC)OCCC(C)C,356.2,0.930610728,-0.1738,-7.083,2.04949,397.0035171485868,0.688339781,-0.874,-7.4044,173.24310,-0.851,-8.17,2.53203,379.5395751346602,0.8409017387,514.0,NaN,430.0,NaN,NaN
OYTMIZYGLJKIKS-UHFFFAOYSA-N,CCCCc1nc(c2n1ccc(c2)c1nnc(o1)c1ccccc1)Cl,Cc1nc(c2n1ccc(c2)c1nnc(o1)c1ccccc1)Cl,358.0,0.284261846,-0.3042,-7.6499,0.88960,434.42255923442065,0.42533947,-1.2005,-7.4336,129.18292,-1.536,-8.672,0.50479,NaN,NaN,285,25500,285,25500,dichloromethane
NXISISSNVDDMTP-UHFFFAOYSA-N,[O-][n+]1cccc2c1c1[n+]([O-])cccc1C2=O,[O-][n+]1cccc2c1c1[n+]([O-])cccc1C2=O,451.0,0.108908766,-1.3094,-8.1404,3.33587,467.51206035257786,3.596e-06,-2.1989,-8.6705,34.86371,-1.939,-8.722,2.41663,NaN,NaN,324,NaN,324,NaN,NaN
YVSMNGPBLUXJFK-UHFFFAOYSA-N,CN(c1ccccc1)N=C1C(=O)C(=O)C1=NN(c1ccccc1)C,CN(c1ccccc1)N=C1C(=O)C(=O)C1=NN(c1ccccc1)C,600.1,0.004355593,-1.0506,-7.5676,7.56555,550.7960835428861,0.000753179,-2.3376,-8.5238,126.87477,-1.002,-8.501,6.38286,NaN,NaN,514,NaN,514,NaN,NaN
VMFSJOWBITZTLO-UHFFFAOYSA-N,O1CCN(CC1)c1ccc(cc1)C=c1oc(=Cc2ccccc2)c2c1cccc2,O1CCN(CC1)c1ccc(cc1)C=c1oc(=Cc2ccccc2)c2c1cccc2,363.2,0.843981337,-0.0586,-6.904,1.81938,367.5784121123737,0.338240579,-0.4341,-7.2387,29.65908,-1.019,-7.988,2.51652,380.16800971771823,0.7114932071,390,35000.0,390,35000.0,NaN
LKSOTRKPFGMVSO-UHFFFAOYSA-N,CC1=NC(=Cc2ccc(cc2)N(C)C)C(=O)N1CCN1C(=NC(=Cc2ccc(cc2)N(C)C)C1=O)C,CC1=NC(=Cc2ccc(cc2)N(C)C)C(=O)N1CCN1C(=NC(=Cc2ccc(cc2)N(C)C)C1=O)C,340.4,1.089062437,-0.1447,-7.0777,7.91792,382.1954328159792,0.680682583,-1.0242,-7.5801,182.14684,-0.936,-8.014,6.93513,371.36582103049017,1.0368905252,436,36300,436,36300,methanol
RMZQVWZMCUAUFX-UHFFFAOYSA-N,CCN1BN(c2c1cccc2)CCc1cccs1,CCN1BN(c2c1cccc2)CCc1cccs1,257.8,0.0793743,1.6485,-7.6734,0.75147,303.95733857686605,0.048195658,0.404,-7.5612,62.53975,-0.156,-8.297,0.36691,NaN,NaN,296,NaN,296,NaN,NaN
XDBMCBOMQVDABX-UHFFFAOYSA-N,CCCCC(Cn1c2ccc(cc2c2c1cccc2)c1ccc(c2c1nsn2)c1ccc(s1)C=C(C(=O)O)C#N)CC,C(Cn1c2ccc(cc2c2c1cccc2)c1ccc(c2c1nsn2)c1ccc(s1)C=C(C(=O)O)C#N)CC,415.7,1.441552945,-1.4272,-7.5812,7.33033,514.457254794621,0.583626756,-2.1305,-7.6837,637.84169,-1.977,-8.28,7.34227,449.2994854475066,1.1918349479,484,26206,484,26206,NaN
GGUHKIHAVZNNOM-UHFFFAOYSA-N,Cc1ccc(cc1)C(C1=C(O)C(=O)c2c(C1=O)cccc2)Nc1ccccc1,Cc1ccc(cc1)C(C1=C(O)C(=O)c2c(C1=O)cccc2)Nc1ccccc1,428.3,0.00084698,-1.3502,-7.5707,3.49643,453.6560497823039,0.013461656,-2.259,-8.0354,73.51210,-1.926,-8.218,4.73578,NaN,NaN,514,2511.88643150958,514,2511.88643150958,NaN
ISAKRJDGNUQOIC-UHFFFAOYSA-N,O=c1cc[nH]c(=O)[nH]1,O=c1cc[nH]c(=O)[nH]1,236.8,0.000797845,0.7186,-9.477,4.44637,305.90722527881485,0.000517477,-1.0232,-10.0109,28.34858,-0.735,-10.164,4.4839,NaN,NaN,340,NaN,340,NaN,NaN
DAFLBKQYOJSDDE-UHFFFAOYSA-N,CSCC(=O)CC(c1ccc(cc1)Cl)O,CSCC(=O)CC(c1ccc(cc1)Cl)O,273.3,0.004602911,1.1753,-8.7051,1.05159,328.34798306542285,0.000220766,-0.0196,-9.1349,86.79436,-0.601,-8.667,1.43758,NaN,NaN,NaN,NaN,NaN,NaN,NaN
YYMBJDOZVAITBP-UHFFFAOYSA-N,c1ccc(cc1)c1c2ccccc2c(c2c1c(c1ccccc1)c1ccccc1c2c1ccccc1)c1ccccc1,c1ccc(cc1)c1c2ccccc2c(c2c1c(c1ccccc1)c1ccccc1c2c1ccccc1)c1ccccc1,478.3,0.3512835,-0.6644,-6.7602,0.01035,496.33386071058305,0.317807487,-1.0659,-6.5944,0.03815,-1.448,-7.751,0.00284,NaN,NaN,NaN,NaN,NaN,NaN,NaN
HBIZFQMABCWVNU-UHFFFAOYSA-N,CCN(c1ccc2c(c1)oc(=NC(=O)NCCCCNC(=O)N=c1oc3cc(ccc3cc1C#N)N(CC)CC)c(c2)C#N)CC,CCN(c1ccc2c(c1)oc(=NC(=O)NCNC(=O)N=c1oc3cc(ccc3cc1C#N)N(CC)CC)c(c2)C#N)CC,330.3,1.662508821,-0.3793,-7.7045,3.82818,404.9124702988363,0.908589875,-1.3684,-7.7636,109.38474,-1.403,-8.339,13.97438,354.3316653117643,1.3598875739,439.0,NaN,430.0,NaN,NaN
UVOSJTFQHQAYAP-UHFFFAOYSA-N,CCn1c2ccc(cc2c2c1ccc(c2)N(c1ccc(cc1)C)c1ccc(cc1)C)N(c1ccc(cc1)C)c1ccc(cc1)C,CCn1c2ccc(cc2c2c1ccc(c2)N(c1ccc(cc1)C)c1ccc(cc1)C)N(c1ccc(cc1)C)c1ccc(cc1)C,335.6,0.055465497,0.7278,-6.5859,1.96027,355.5612228434289,0.042814506,0.0292,-6.9205,38.12180,-0.397,-7.376,1.82959,NaN,NaN,405.0,46500,308.0,46500,NaN
HDXAGFXLPGDTMX-UHFFFAOYSA-N,c1ccc(cc1)n1c2ccc(cc2c2c1cccc2)c1sc(c2c1cccc2)c1cccs1,c1ccc(cc1)n1c2ccc(cc2c2c1cccc2)c1sc(c2c1cccc2)c1cccs1,376.5,0.833579791,0.0083,-6.9832,2.70967,465.9308470706639,0.409664962,-0.7484,-6.8251,282.59584,-1.171,-8.152,2.17034,404.72740422158205,0.613828546,445,NaN,445,NaN,CH 2 Cl
COKDBCCJSNVXKO-UHFFFAOYSA-N,COc1ccc(cc1)c1c([nH]c2c1cccc2)c1ccc(cc1)S(=O)(=O)C,COc1ccc(cc1)c1c([nH]c2c1cccc2)c1ccc(cc1)S(=O)(=O)C,306.1,0.509819837,0.0286,-7.6115,4.31837,355.3574044296465,0.416823169,-0.6593,-7.6167,257.83802,-0.913,-8.414,4.70436,NaN,NaN,237,NaN,237,NaN,NaN
DOERLUCWEUSMIF-UHFFFAOYSA-N,CCN(c1ccc(cc1)C=CC(=O)O)CC,CCN(c1ccc(cc1)C=CC(=O)O)CC,295.1,0.836314075,0.3641,-7.4183,5.53589,336.1827505572225,0.647200059,-0.8206,-7.9357,190.58267,-0.619,-8.285,6.04595,313.46343642514967,0.9118264632,367,35550,367,35550,DMF
UUJYJQMSFALWBX-UHFFFAOYSA-N,CN(c1c[nH]c(=O)[nH]c1=O)C,CN(c1c[nH]c(=O)[nH]c1=O)C,276.6,0.160510546,0.9426,-8.0785,4.70318,326.3600905646319,0.027536511,-0.8485,-8.8551,77.38422,-0.467,-8.477,5.10323,NaN,NaN,465.0,NaN,285.0,NaN,NaN
AFSDNFLWKVMVRB-UHFFFAOYSA-N,Oc1cc2c(=O)oc3c4c2c(c1O)oc(=O)c4cc(c3O)O,Oc1cc2c(=O)oc3c4c2c(c1O)oc(=O)c4cc(c3O)O,301.9,0.24747944,-0.2581,-8.2462,0.03163,363.6966805676259,0.291916987,-1.7318,-8.7308,0.10906,-1.825,-9.224,0.2343,NaN,NaN,364.0,NaN,253.0,NaN,NaN
RQFCJASXJCIDSX-UUOKFMHZSA-N,O[C@@H]1[C@H](O)[C@H](O[C@H]1n1cnc2c1nc(N)[nH]c2=O)COP(=O)(O)O,O[C@@H]1[C@H](O)[C@H](O[C@H]1n1cnc2c1nc(N)[nH]c2=O)COP(=O)(O)O,240.7,0.193988175,1.6042,-8.2181,5.09264,336.82205489134384,0.163517948,-0.2538,-7.9384,93.47175,-0.506,-8.994,3.41623,NaN,NaN,254,NaN,254,NaN,NaN
WXLMNQGCYDYAER-UHFFFAOYSA-N,COc1cc(C=CC(=O)c2cc3ccccc3oc2=O)cc(c1OC)OC,COc1cc(C=CC(=O)c2cc3ccccc3oc2=O)cc(c1OC)OC,344.7,0.003283642,-0.9412,-8.144,3.28789,371.9897941959306,0.022355289,-1.5809,-8.2625,41.14924,-1.58,-8.795,4.43477,NaN,NaN,368,NaN,368,NaN,NaN
MVCJBPCQZBRDGT-UHFFFAOYSA-N,CSc1ccc(cc1)c1cc(c2ccc(cc2)SC)c2c3c1ccc1c3c(cc2)c(cc1c1ccc(cc1)SC)c1ccc(cc1)SC,CSc1ccc(cc1)c1cc(c2ccc(cc2)SC)c2c3c1ccc1c3c(cc2)c(cc1c1ccc(cc1)SC)c1ccc(cc1)SC,365.1,1.024437794,-0.1859,-7.0408,2.25058,382.6672790293323,0.714883296,-0.6664,-7.0164,34.62332,-1.224,-8.085,0.36086,368.05851988731064,1.1223425206,403.0,NaN,396.0,NaN,Cyclohexane
INCDUGHLJBBFJQ-ZETCQYMHSA-N,NC(=O)C[C@@H](C(=O)O)Nc1nc2c(s1)cc(cc2)F,NC(=O)C[C@@H](C(=O)O)Nc1nc2c(s1)cc(cc2)F,258.4,0.026553066,1.0461,-8.3046,3.07305,308.7255936392023,0.246538804,-0.5504,-8.4716,52.52101,-1.316,-9.115,2.45644,NaN,NaN,278,NaN,278,NaN,NaN
JENARGOADBRORO-UHFFFAOYSA-N,C[Si](C#Cc1ccc2c(c1)Cc1c2ccc(c1)C#C[Si](C)(C)C)(C)C,C[Si](C#Cc1ccc2c(c1)Cc1c2ccc(c1)C#C[Si](C)(C)C)(C)C,300.8,1.498269856,-0.0158,-7.8331,0.36331,340.42888084981786,0.961934221,-0.2086,-7.3396,3.34559,-0.74,-8.488,0.85005,305.54535218403925,1.6044902795,NaN,NaN,NaN,NaN,NaN
TZBJGXHYKVUXJN-UHFFFAOYSA-N,Oc1ccc(cc1)c1coc2c(c1=O)c(O)cc(c2)O,Oc1ccc(cc1)c1coc2c(c1=O)c(O)cc(c2)O,277.6,0.069777986,0.3494,-8.1612,5.54006,364.7666913960096,0.000542267,-1.1443,-8.3573,52.29116,-0.844,-8.974,1.64646,NaN,NaN,325.0,NaN,260.0,NaN,NaN
CVSGFMWKZVZOJD-UHFFFAOYSA-N,c1cnc2c(n1)c1nccnc1cc2,c1cnc2c(n1)c1nccnc1cc2,326.8,5.207e-06,-0.3532,-9.2111,0.05598,339.9621563079344,0.077339988,-1.0129,-8.6023,12.05138,-1.546,-9.98,0.0059,NaN,NaN,403.0,NaN,393.0,NaN,Cl
BXRFQSNOROATLV-UHFFFAOYSA-N,O=Cc1ccc(cc1)[N+](=O)[O-],O=Cc1ccc(cc1)[N+](=O)[O-],320.2,0.000157836,-1.2493,-10.3606,2.52712,428.5661887504448,2.12e-07,-2.926,-10.3991,47.98122,-1.908,-10.894,3.44134,NaN,NaN,332.0,NaN,325.0,NaN,ethanol
XVWLMBQSUMLOMR-UHFFFAOYSA-N,O=c1cc2cc(O)c3c4c2c(o1)ccc4ccc3,O=c1cc2cc(O)c3c4c2c(o1)ccc4ccc3,357.4,0.349660538,-0.8057,-7.813,6.26600,422.5773633452749,0.475702514,-1.7047,-7.8496,81.03555,-1.764,-8.841,6.01624,NaN,NaN,470,NaN,470,NaN,NaN
DUTHQKIZTUFRFT-UHFFFAOYSA-N,OCC(=O)CCc1ccc(cc1)F,OCC(=O)CCc1ccc(cc1)F,248.2,0.000334513,1.2607,-9.0445,3.20455,327.82707140535075,2.2996e-05,-0.1259,-9.119,60.39304,-0.345,-9.839,1.5835,NaN,NaN,NaN,NaN,NaN,NaN,NaN